 Entering Link 1 = C:\G09W\l1.exe PID=     57064.
  
 Copyright (c) 1988,1990,1992,1993,1995,1998,2003,2009,2015,
            Gaussian, Inc.  All Rights Reserved.
  
 This is part of the Gaussian(R) 09 program.  It is based on
 the Gaussian(R) 03 system (copyright 2003, Gaussian, Inc.),
 the Gaussian(R) 98 system (copyright 1998, Gaussian, Inc.),
 the Gaussian(R) 94 system (copyright 1995, Gaussian, Inc.),
 the Gaussian 92(TM) system (copyright 1992, Gaussian, Inc.),
 the Gaussian 90(TM) system (copyright 1990, Gaussian, Inc.),
 the Gaussian 88(TM) system (copyright 1988, Gaussian, Inc.),
 the Gaussian 86(TM) system (copyright 1986, Carnegie Mellon
 University), and the Gaussian 82(TM) system (copyright 1983,
 Carnegie Mellon University). Gaussian is a federally registered
 trademark of Gaussian, Inc.
  
 This software contains proprietary and confidential information,
 including trade secrets, belonging to Gaussian, Inc.
  
 This software is provided under written license and may be
 used, copied, transmitted, or stored only in accord with that
 written license.
  
 The following legend is applicable only to US Government
 contracts under FAR:
  
                    RESTRICTED RIGHTS LEGEND
  
 Use, reproduction and disclosure by the US Government is
 subject to restrictions as set forth in subparagraphs (a)
 and (c) of the Commercial Computer Software - Restricted
 Rights clause in FAR 52.227-19.
  
 Gaussian, Inc.
 340 Quinnipiac St., Bldg. 40, Wallingford CT 06492
  
  
 ---------------------------------------------------------------
 Warning -- This program may not be used in any manner that
 competes with the business of Gaussian, Inc. or will provide
 assistance to any competitor of Gaussian, Inc.  The licensee
 of this program is prohibited from giving any competitor of
 Gaussian, Inc. access to this program.  By using this program,
 the user acknowledges that Gaussian, Inc. is engaged in the
 business of creating and licensing software in the field of
 computational chemistry and represents and warrants to the
 licensee that it is not a competitor of Gaussian, Inc. and that
 it will not use this program in any manner prohibited above.
 ---------------------------------------------------------------
  

 Cite this work as:
 Gaussian 09, Revision E.01,
 M. J. Frisch, G. W. Trucks, H. B. Schlegel, G. E. Scuseria, 
 M. A. Robb, J. R. Cheeseman, G. Scalmani, V. Barone, B. Mennucci, 
 G. A. Petersson, H. Nakatsuji, M. Caricato, X. Li, H. P. Hratchian, 
 A. F. Izmaylov, J. Bloino, G. Zheng, J. L. Sonnenberg, M. Hada, 
 M. Ehara, K. Toyota, R. Fukuda, J. Hasegawa, M. Ishida, T. Nakajima, 
 Y. Honda, O. Kitao, H. Nakai, T. Vreven, J. A. Montgomery, Jr., 
 J. E. Peralta, F. Ogliaro, M. Bearpark, J. J. Heyd, E. Brothers, 
 K. N. Kudin, V. N. Staroverov, T. Keith, R. Kobayashi, J. Normand, 
 K. Raghavachari, A. Rendell, J. C. Burant, S. S. Iyengar, J. Tomasi, 
 M. Cossi, N. Rega, J. M. Millam, M. Klene, J. E. Knox, J. B. Cross, 
 V. Bakken, C. Adamo, J. Jaramillo, R. Gomperts, R. E. Stratmann, 
 O. Yazyev, A. J. Austin, R. Cammi, C. Pomelli, J. W. Ochterski, 
 R. L. Martin, K. Morokuma, V. G. Zakrzewski, G. A. Voth, 
 P. Salvador, J. J. Dannenberg, S. Dapprich, A. D. Daniels, 
 O. Farkas, J. B. Foresman, J. V. Ortiz, J. Cioslowski, 
 and D. J. Fox, Gaussian, Inc., Wallingford CT, 2013.
 
 ******************************************
 Gaussian 09:  EM64W-G09RevE.01 30-Nov-2015
                04-Aug-2025 
 ******************************************
 %chk=D:\SQZ\2025.07.23\1-cation.chk
 ----------------------------------
 # opt freq m062x 6-31+G(d) pop=nbo
 ----------------------------------
 1/14=-1,18=20,19=15,26=3,38=1/1,3;
 2/9=110,12=2,17=6,18=5,40=1/2;
 3/5=1,6=6,7=11,11=2,16=1,25=1,30=1,71=1,74=-55/1,2,3;
 4//1;
 5/5=2,38=5/2;
 6/7=2,8=2,9=2,10=2,28=1,40=1/1,7;
 7//1,2,3,16;
 1/14=-1,18=20,19=15,26=3/3(2);
 2/9=110/2;
 99//99;
 2/9=110/2;
 3/5=1,6=6,7=11,11=2,16=1,25=1,30=1,71=1,74=-55/1,2,3;
 4/5=5,16=3,69=1/1;
 5/5=2,38=5/2;
 7//1,2,3,16;
 1/14=-1,18=20,19=15,26=3/3(-5);
 2/9=110/2;
 6/7=2,8=2,9=2,10=2,19=2,28=1,40=1/1,7;
 99/9=1/99;
 --------
 1-cation
 --------
 Symbolic Z-matrix:
 Charge =  1 Multiplicity = 1
 N                     1.6178   -0.6473   -1.53512 
 C                     1.46314  -1.9416   -1.08287 
 C                     0.99403  -1.86483   0.18548 
 N                     0.87539  -0.52625   0.49396 
 C                     1.2537    0.20424  -0.56351 
 H                     1.70265  -2.79432  -1.69796 
 H                     0.74209  -2.63787   0.89404 
 C                     2.10407  -0.27244  -2.86298 
 H                     3.01143   0.32728  -2.77551 
 H                     2.33442  -1.18503  -3.41118 
 H                     1.33362   0.28101  -3.40269 
 C                     0.34882  -0.01408   1.7699 
 H                     0.63133   1.03855   1.8422 
 H                     0.87097  -0.55129   2.56533 
 C                    -1.16492  -0.18814   1.87741 
 H                    -1.45296   0.13812   2.88337 
 H                    -1.41448  -1.25528   1.81789 
 C                    -1.96016   0.59374   0.83125 
 H                    -1.65744   0.27952  -0.17754 
 H                    -1.7201    1.66223   0.91949 
 C                    -3.4672    0.39785   0.98534 
 H                    -4.01506   0.96436   0.22772 
 H                    -3.73988  -0.65728   0.8782 
 H                    -3.80886   0.73541   1.96905 
 C                     1.27504   1.68894  -0.64207 
 H                     1.9955    2.10508   0.06939 
 H                     1.55931   2.01868  -1.64204 
 H                     0.28775   2.10071  -0.41658 
 

 GradGradGradGradGradGradGradGradGradGradGradGradGradGradGradGradGradGrad
 Berny optimization.
 Initialization pass.
                           ----------------------------
                           !    Initial Parameters    !
                           ! (Angstroms and Degrees)  !
 --------------------------                            --------------------------
 ! Name  Definition              Value          Derivative Info.                !
 --------------------------------------------------------------------------------
 ! R1    R(1,2)                  1.3797         estimate D2E/DX2                !
 ! R2    R(1,5)                  1.3423         estimate D2E/DX2                !
 ! R3    R(1,8)                  1.4629         estimate D2E/DX2                !
 ! R4    R(2,3)                  1.3545         estimate D2E/DX2                !
 ! R5    R(2,6)                  1.0783         estimate D2E/DX2                !
 ! R6    R(3,4)                  1.3788         estimate D2E/DX2                !
 ! R7    R(3,7)                  1.0785         estimate D2E/DX2                !
 ! R8    R(4,5)                  1.3398         estimate D2E/DX2                !
 ! R9    R(4,12)                 1.4723         estimate D2E/DX2                !
 ! R10   R(5,25)                 1.4869         estimate D2E/DX2                !
 ! R11   R(8,9)                  1.0911         estimate D2E/DX2                !
 ! R12   R(8,10)                 1.0892         estimate D2E/DX2                !
 ! R13   R(8,11)                 1.0914         estimate D2E/DX2                !
 ! R14   R(12,13)                1.0923         estimate D2E/DX2                !
 ! R15   R(12,14)                1.0927         estimate D2E/DX2                !
 ! R16   R(12,15)                1.5275         estimate D2E/DX2                !
 ! R17   R(15,16)                1.0961         estimate D2E/DX2                !
 ! R18   R(15,17)                1.0976         estimate D2E/DX2                !
 ! R19   R(15,18)                1.5291         estimate D2E/DX2                !
 ! R20   R(18,19)                1.0991         estimate D2E/DX2                !
 ! R21   R(18,20)                1.0987         estimate D2E/DX2                !
 ! R22   R(18,21)                1.5275         estimate D2E/DX2                !
 ! R23   R(21,22)                1.0932         estimate D2E/DX2                !
 ! R24   R(21,23)                1.095          estimate D2E/DX2                !
 ! R25   R(21,24)                1.0947         estimate D2E/DX2                !
 ! R26   R(25,26)                1.0947         estimate D2E/DX2                !
 ! R27   R(25,27)                1.0906         estimate D2E/DX2                !
 ! R28   R(25,28)                1.0932         estimate D2E/DX2                !
 ! A1    A(2,1,5)              109.1138         estimate D2E/DX2                !
 ! A2    A(2,1,8)              125.1103         estimate D2E/DX2                !
 ! A3    A(5,1,8)              125.7758         estimate D2E/DX2                !
 ! A4    A(1,2,3)              107.0127         estimate D2E/DX2                !
 ! A5    A(1,2,6)              122.001          estimate D2E/DX2                !
 ! A6    A(3,2,6)              130.9857         estimate D2E/DX2                !
 ! A7    A(2,3,4)              107.1174         estimate D2E/DX2                !
 ! A8    A(2,3,7)              130.9563         estimate D2E/DX2                !
 ! A9    A(4,3,7)              121.9246         estimate D2E/DX2                !
 ! A10   A(3,4,5)              109.1752         estimate D2E/DX2                !
 ! A11   A(3,4,12)             124.2218         estimate D2E/DX2                !
 ! A12   A(5,4,12)             126.5378         estimate D2E/DX2                !
 ! A13   A(1,5,4)              107.5792         estimate D2E/DX2                !
 ! A14   A(1,5,25)             126.2503         estimate D2E/DX2                !
 ! A15   A(4,5,25)             126.1693         estimate D2E/DX2                !
 ! A16   A(1,8,9)              110.1499         estimate D2E/DX2                !
 ! A17   A(1,8,10)             108.2052         estimate D2E/DX2                !
 ! A18   A(1,8,11)             110.1291         estimate D2E/DX2                !
 ! A19   A(9,8,10)             108.9647         estimate D2E/DX2                !
 ! A20   A(9,8,11)             110.362          estimate D2E/DX2                !
 ! A21   A(10,8,11)            108.9819         estimate D2E/DX2                !
 ! A22   A(4,12,13)            107.4638         estimate D2E/DX2                !
 ! A23   A(4,12,14)            106.795          estimate D2E/DX2                !
 ! A24   A(4,12,15)            112.0733         estimate D2E/DX2                !
 ! A25   A(13,12,14)           107.5782         estimate D2E/DX2                !
 ! A26   A(13,12,15)           111.1906         estimate D2E/DX2                !
 ! A27   A(14,12,15)           111.4876         estimate D2E/DX2                !
 ! A28   A(12,15,16)           106.9245         estimate D2E/DX2                !
 ! A29   A(12,15,17)           109.409          estimate D2E/DX2                !
 ! A30   A(12,15,18)           114.1395         estimate D2E/DX2                !
 ! A31   A(16,15,17)           106.2266         estimate D2E/DX2                !
 ! A32   A(16,15,18)           109.8185         estimate D2E/DX2                !
 ! A33   A(17,15,18)           109.9865         estimate D2E/DX2                !
 ! A34   A(15,18,19)           109.7872         estimate D2E/DX2                !
 ! A35   A(15,18,20)           109.1894         estimate D2E/DX2                !
 ! A36   A(15,18,21)           112.2414         estimate D2E/DX2                !
 ! A37   A(19,18,20)           106.9519         estimate D2E/DX2                !
 ! A38   A(19,18,21)           109.127          estimate D2E/DX2                !
 ! A39   A(20,18,21)           109.4011         estimate D2E/DX2                !
 ! A40   A(18,21,22)           110.9818         estimate D2E/DX2                !
 ! A41   A(18,21,23)           111.0614         estimate D2E/DX2                !
 ! A42   A(18,21,24)           111.0402         estimate D2E/DX2                !
 ! A43   A(22,21,23)           107.8625         estimate D2E/DX2                !
 ! A44   A(22,21,24)           107.8525         estimate D2E/DX2                !
 ! A45   A(23,21,24)           107.8973         estimate D2E/DX2                !
 ! A46   A(5,25,26)            110.7734         estimate D2E/DX2                !
 ! A47   A(5,25,27)            110.736          estimate D2E/DX2                !
 ! A48   A(5,25,28)            110.6246         estimate D2E/DX2                !
 ! A49   A(26,25,27)           108.0234         estimate D2E/DX2                !
 ! A50   A(26,25,28)           108.4888         estimate D2E/DX2                !
 ! A51   A(27,25,28)           108.0971         estimate D2E/DX2                !
 ! D1    D(5,1,2,3)              0.1201         estimate D2E/DX2                !
 ! D2    D(5,1,2,6)           -179.6314         estimate D2E/DX2                !
 ! D3    D(8,1,2,3)           -179.9776         estimate D2E/DX2                !
 ! D4    D(8,1,2,6)              0.2709         estimate D2E/DX2                !
 ! D5    D(2,1,5,4)              0.1441         estimate D2E/DX2                !
 ! D6    D(2,1,5,25)           179.753          estimate D2E/DX2                !
 ! D7    D(8,1,5,4)           -179.7574         estimate D2E/DX2                !
 ! D8    D(8,1,5,25)            -0.1485         estimate D2E/DX2                !
 ! D9    D(2,1,8,9)           -120.0347         estimate D2E/DX2                !
 ! D10   D(2,1,8,10)            -1.0161         estimate D2E/DX2                !
 ! D11   D(2,1,8,11)           118.0113         estimate D2E/DX2                !
 ! D12   D(5,1,8,9)             59.8515         estimate D2E/DX2                !
 ! D13   D(5,1,8,10)           178.8702         estimate D2E/DX2                !
 ! D14   D(5,1,8,11)           -62.1024         estimate D2E/DX2                !
 ! D15   D(1,2,3,4)             -0.3282         estimate D2E/DX2                !
 ! D16   D(1,2,3,7)           -179.845          estimate D2E/DX2                !
 ! D17   D(6,2,3,4)            179.3926         estimate D2E/DX2                !
 ! D18   D(6,2,3,7)             -0.1242         estimate D2E/DX2                !
 ! D19   D(2,3,4,5)              0.4271         estimate D2E/DX2                !
 ! D20   D(2,3,4,12)           177.6529         estimate D2E/DX2                !
 ! D21   D(7,3,4,5)            179.9972         estimate D2E/DX2                !
 ! D22   D(7,3,4,12)            -2.777          estimate D2E/DX2                !
 ! D23   D(3,4,5,1)             -0.3521         estimate D2E/DX2                !
 ! D24   D(3,4,5,25)          -179.9614         estimate D2E/DX2                !
 ! D25   D(12,4,5,1)          -177.497          estimate D2E/DX2                !
 ! D26   D(12,4,5,25)            2.8937         estimate D2E/DX2                !
 ! D27   D(3,4,12,13)          164.3145         estimate D2E/DX2                !
 ! D28   D(3,4,12,14)           49.1221         estimate D2E/DX2                !
 ! D29   D(3,4,12,15)          -73.2407         estimate D2E/DX2                !
 ! D30   D(5,4,12,13)          -18.9472         estimate D2E/DX2                !
 ! D31   D(5,4,12,14)         -134.1397         estimate D2E/DX2                !
 ! D32   D(5,4,12,15)          103.4976         estimate D2E/DX2                !
 ! D33   D(1,5,25,26)         -115.3938         estimate D2E/DX2                !
 ! D34   D(1,5,25,27)            4.4375         estimate D2E/DX2                !
 ! D35   D(1,5,25,28)          124.2641         estimate D2E/DX2                !
 ! D36   D(4,5,25,26)           64.1443         estimate D2E/DX2                !
 ! D37   D(4,5,25,27)         -176.0243         estimate D2E/DX2                !
 ! D38   D(4,5,25,28)          -56.1978         estimate D2E/DX2                !
 ! D39   D(4,12,15,16)         175.26           estimate D2E/DX2                !
 ! D40   D(4,12,15,17)          60.6211         estimate D2E/DX2                !
 ! D41   D(4,12,15,18)         -63.0908         estimate D2E/DX2                !
 ! D42   D(13,12,15,16)        -64.4394         estimate D2E/DX2                !
 ! D43   D(13,12,15,17)       -179.0783         estimate D2E/DX2                !
 ! D44   D(13,12,15,18)         57.2099         estimate D2E/DX2                !
 ! D45   D(14,12,15,16)         55.6082         estimate D2E/DX2                !
 ! D46   D(14,12,15,17)        -59.0307         estimate D2E/DX2                !
 ! D47   D(14,12,15,18)        177.2574         estimate D2E/DX2                !
 ! D48   D(12,15,18,19)         58.909          estimate D2E/DX2                !
 ! D49   D(12,15,18,20)        -58.0469         estimate D2E/DX2                !
 ! D50   D(12,15,18,21)       -179.5347         estimate D2E/DX2                !
 ! D51   D(16,15,18,19)        178.9486         estimate D2E/DX2                !
 ! D52   D(16,15,18,20)         61.9927         estimate D2E/DX2                !
 ! D53   D(16,15,18,21)        -59.495          estimate D2E/DX2                !
 ! D54   D(17,15,18,19)        -64.4912         estimate D2E/DX2                !
 ! D55   D(17,15,18,20)        178.5529         estimate D2E/DX2                !
 ! D56   D(17,15,18,21)         57.0652         estimate D2E/DX2                !
 ! D57   D(15,18,21,22)       -179.9512         estimate D2E/DX2                !
 ! D58   D(15,18,21,23)        -59.97           estimate D2E/DX2                !
 ! D59   D(15,18,21,24)         60.0942         estimate D2E/DX2                !
 ! D60   D(19,18,21,22)        -58.0178         estimate D2E/DX2                !
 ! D61   D(19,18,21,23)         61.9634         estimate D2E/DX2                !
 ! D62   D(19,18,21,24)       -177.9724         estimate D2E/DX2                !
 ! D63   D(20,18,21,22)         58.6824         estimate D2E/DX2                !
 ! D64   D(20,18,21,23)        178.6636         estimate D2E/DX2                !
 ! D65   D(20,18,21,24)        -61.2722         estimate D2E/DX2                !
 --------------------------------------------------------------------------------
 Trust Radius=3.00D-01 FncErr=1.00D-07 GrdErr=1.00D-06
 Number of steps in this run=    154 maximum allowed number of steps=    168.
 GradGradGradGradGradGradGradGradGradGradGradGradGradGradGradGradGradGrad

                          Input orientation:                          
 ---------------------------------------------------------------------
 Center     Atomic      Atomic             Coordinates (Angstroms)
 Number     Number       Type             X           Y           Z
 ---------------------------------------------------------------------
      1          7           0        1.617796   -0.647303   -1.535123
      2          6           0        1.463138   -1.941603   -1.082870
      3          6           0        0.994026   -1.864825    0.185484
      4          7           0        0.875387   -0.526249    0.493956
      5          6           0        1.253704    0.204242   -0.563507
      6          1           0        1.702645   -2.794318   -1.697961
      7          1           0        0.742093   -2.637871    0.894044
      8          6           0        2.104073   -0.272435   -2.862981
      9          1           0        3.011428    0.327278   -2.775506
     10          1           0        2.334416   -1.185031   -3.411176
     11          1           0        1.333624    0.281014   -3.402689
     12          6           0        0.348817   -0.014084    1.769899
     13          1           0        0.631334    1.038549    1.842201
     14          1           0        0.870971   -0.551287    2.565332
     15          6           0       -1.164916   -0.188140    1.877414
     16          1           0       -1.452961    0.138121    2.883373
     17          1           0       -1.414481   -1.255283    1.817890
     18          6           0       -1.960158    0.593735    0.831246
     19          1           0       -1.657435    0.279524   -0.177542
     20          1           0       -1.720102    1.662234    0.919494
     21          6           0       -3.467202    0.397848    0.985335
     22          1           0       -4.015055    0.964355    0.227720
     23          1           0       -3.739880   -0.657282    0.878204
     24          1           0       -3.808858    0.735405    1.969054
     25          6           0        1.275036    1.688936   -0.642066
     26          1           0        1.995504    2.105082    0.069394
     27          1           0        1.559309    2.018675   -1.642042
     28          1           0        0.287748    2.100712   -0.416575
 ---------------------------------------------------------------------
                    Distance matrix (angstroms):
                    1          2          3          4          5
     1  N    0.000000
     2  C    1.379733   0.000000
     3  C    2.198167   1.354505   0.000000
     4  N    2.164021   2.198877   1.378773   0.000000
     5  C    1.342285   2.217713   2.215730   1.339764   0.000000
     6  H    2.154852   1.078343   2.216633   3.260827   3.237267
     7  H    3.260379   2.216503   1.078484   2.153320   3.234781
     8  C    1.462942   2.523037   3.614007   3.583729   2.497585
     9  H    2.104892   3.226459   4.200320   3.997569   2.828015
    10  H    2.079007   2.598564   3.898042   4.220523   3.347721
    11  H    2.104835   3.215332   4.194632   4.005683   2.841344
    12  C    3.596449   3.618747   2.520299   1.472284   2.512224
    13  H    3.901477   4.257845   3.362415   2.079884   2.621229
    14  H    4.169016   3.948800   2.721066   2.071532   3.241441
    15  C    4.427158   4.329501   3.214799   2.488194   3.458581
    16  H    5.437789   5.344153   4.156699   3.401750   4.383080
    17  H    4.561473   4.143203   2.972742   2.743681   3.862703
    18  C    4.465605   4.670196   3.897272   3.067319   3.525046
    19  H    3.664584   3.935861   3.429324   2.741417   2.937578
    20  H    4.743487   5.208658   4.510588   3.421564   3.628850
    21  C    5.770810   5.835988   5.065768   4.466933   4.972258
    22  H    6.118339   6.338205   5.752994   5.119493   5.381787
    23  H    5.876133   5.706723   4.934358   4.633088   5.268457
    24  H    6.606036   6.653913   5.745434   5.070487   5.685555
    25  C    2.524490   3.662035   3.659648   2.521371   1.486924
    26  H    3.208233   4.241083   4.095924   2.891162   2.136358
    27  H    2.668762   4.000715   4.329084   3.392178   2.132791
    28  H    3.251425   4.262136   4.072688   2.841709   2.133368
                    6          7          8          9         10
     6  H    0.000000
     7  H    2.768687   0.000000
     8  C    2.806833   4.643868   0.000000
     9  H    3.552236   5.235226   1.091146   0.000000
    10  H    2.433936   4.814681   1.089223   1.774683   0.000000
    11  H    3.535526   5.227974   1.091413   1.791794   1.775090
    12  C    4.646354   2.793930   4.960972   5.278895   5.670737
    13  H    5.326474   3.798333   5.101605   5.243469   5.953383
    14  H    4.888613   2.676499   5.573588   5.820480   6.185625
    15  C    5.272417   3.256514   5.758884   6.273529   6.419369
    16  H    6.288535   4.059781   6.770645   7.210372   7.464335
    17  H    4.944321   2.723206   5.937741   6.572097   6.434462
    18  C    5.593918   4.213001   5.560174   6.147872   6.293292
    19  H    4.801074   3.926477   4.654587   5.343218   5.341927
    20  H    6.198961   4.955195   5.716150   6.150001   6.580330
    21  C    6.642087   5.190577   6.804258   7.491432   7.449402
    22  H    7.108302   6.004205   6.966047   7.667900   7.627398
    23  H    6.389415   4.900109   6.949558   7.739452   7.454822
    24  H    7.502174   5.765916   7.702406   8.318276   8.388967
    25  C    4.625725   4.622220   3.076807   3.069322   4.129158
    26  H    5.216649   4.974604   3.776665   3.505160   4.801466
    27  H    4.815452   5.364979   2.652668   2.500843   3.740903
    28  H    5.254065   4.937441   3.862093   4.015975   4.894139
                   11         12         13         14         15
    11  H    0.000000
    12  C    5.273765   0.000000
    13  H    5.345647   1.092282   0.000000
    14  H    6.043513   1.092678   1.762930   0.000000
    15  C    5.860230   1.527496   2.175436   2.179436   0.000000
    16  H    6.877503   2.123534   2.497818   2.444809   1.096070
    17  H    6.096453   2.156872   3.073697   2.505508   1.097552
    18  C    5.373360   2.565517   2.817041   3.511897   1.529119
    19  H    4.398637   2.811366   3.145464   3.821837   2.164285
    20  H    5.469395   2.795292   2.601850   3.784457   2.156322
    21  C    6.505101   3.917554   4.235884   4.713491   2.537658
    22  H    6.500399   4.730649   4.919450   5.624487   3.488987
    23  H    6.704244   4.233942   4.786715   4.910966   2.801599
    24  H    7.450316   4.229380   4.452336   4.889982   2.802100
    25  C    3.099470   3.094468   2.647440   3.933099   3.978009
    26  H    3.977521   3.177131   2.478164   3.814522   4.303029
    27  H    2.484004   4.151956   3.736540   4.978003   4.967696
    28  H    3.649936   3.042492   2.519585   4.032991   3.551262
                   16         17         18         19         20
    16  H    0.000000
    17  H    1.754511   0.000000
    18  C    2.162420   2.165663   0.000000
    19  H    3.070994   2.529112   1.099101   0.000000
    20  H    2.500221   3.067968   1.098683   1.766155   0.000000
    21  C    2.779779   2.763992   1.527513   2.154423   2.157630
    22  H    3.781465   3.770732   2.173524   2.488293   2.496477
    23  H    3.143782   2.578390   2.175927   2.515707   3.075933
    24  H    2.596724   3.117488   2.175401   3.073162   2.514655
    25  C    4.719716   4.685436   3.719757   3.286580   3.377874
    26  H    4.866141   5.096792   4.302540   4.091162   3.837253
    27  H    5.752359   5.615457   4.531474   3.939143   4.176488
    28  H    4.215624   4.376428   2.980121   2.675369   2.451286
                   21         22         23         24         25
    21  C    0.000000
    22  H    1.093185   0.000000
    23  H    1.095048   1.768773   0.000000
    24  H    1.094704   1.768383   1.770392   0.000000
    25  C    5.177274   5.409862   5.741545   5.794234   0.000000
    26  H    5.796098   6.119897   6.417122   6.259021   1.094727
    27  H    5.898814   5.973369   6.449325   6.595757   1.090638
    28  H    4.354853   4.496725   5.050225   4.933302   1.093226
                   26         27         28
    26  H    0.000000
    27  H    1.768261   0.000000
    28  H    1.775561   1.767871   0.000000
 Stoichiometry    C9H17N2(1+)
 Framework group  C1[X(C9H17N2)]
 Deg. of freedom    78
 Full point group                 C1      NOp   1
 Largest Abelian subgroup         C1      NOp   1
 Largest concise Abelian subgroup C1      NOp   1
                         Standard orientation:                         
 ---------------------------------------------------------------------
 Center     Atomic      Atomic             Coordinates (Angstroms)
 Number     Number       Type             X           Y           Z
 ---------------------------------------------------------------------
      1          7           0       -2.062235   -0.013200   -0.374422
      2          6           0       -1.872636    1.298966   -0.756437
      3          6           0       -0.731531    1.723588   -0.162923
      4          7           0       -0.243329    0.669017    0.579071
      5          6           0       -1.059996   -0.383655    0.437988
      6          1           0       -2.563399    1.809956   -1.408020
      7          1           0       -0.230039    2.677795   -0.196444
      8          6           0       -3.181641   -0.857648   -0.791599
      9          1           0       -3.746798   -1.190453    0.080433
     10          1           0       -3.834470   -0.265584   -1.431662
     11          1           0       -2.814291   -1.716278   -1.356391
     12          6           0        1.015719    0.705661    1.341353
     13          1           0        1.002663   -0.136745    2.036524
     14          1           0        0.999135    1.623223    1.934437
     15          6           0        2.240328    0.650550    0.430014
     16          1           0        3.121097    0.768913    1.071579
     17          1           0        2.232926    1.517007   -0.243646
     18          6           0        2.359067   -0.640644   -0.380494
     19          1           0        1.466977   -0.768361   -1.009690
     20          1           0        2.391377   -1.496960    0.307098
     21          6           0        3.602950   -0.654507   -1.266982
     22          1           0        3.666983   -1.585073   -1.837070
     23          1           0        3.586996    0.176064   -1.980443
     24          1           0        4.514200   -0.565135   -0.666972
     25          6           0       -0.890901   -1.716964    1.074099
     26          1           0       -0.963841   -1.639409    2.163636
     27          1           0       -1.662186   -2.408342    0.732622
     28          1           0        0.083469   -2.143422    0.821352
 ---------------------------------------------------------------------
 Rotational constants (GHZ):      1.7995586      0.6481381      0.6045230
 Standard basis: 6-31+G(d) (6D, 7F)
 There are   243 symmetry adapted cartesian basis functions of A   symmetry.
 There are   243 symmetry adapted basis functions of A   symmetry.
   243 basis functions,   420 primitive gaussians,   243 cartesian basis functions
    42 alpha electrons       42 beta electrons
       nuclear repulsion energy       650.8766464193 Hartrees.
 NAtoms=   28 NActive=   28 NUniq=   28 SFac= 1.00D+00 NAtFMM=   60 NAOKFM=F Big=F
 Integral buffers will be    131072 words long.
 Raffenetti 2 integral format.
 Two-electron integral symmetry is turned on.
 One-electron integrals computed using PRISM.
 NBasis=   243 RedAO= T EigKep=  2.06D-05  NBF=   243
 NBsUse=   243 1.00D-06 EigRej= -1.00D+00 NBFU=   243
 ExpMin= 4.38D-02 ExpMax= 4.17D+03 ExpMxC= 6.27D+02 IAcc=2 IRadAn=         4 AccDes= 0.00D+00
 Harris functional with IExCor= 1009 and IRadAn=       4 diagonalized for initial guess.
 HarFok:  IExCor= 1009 AccDes= 0.00D+00 IRadAn=         4 IDoV= 1 UseB2=F ITyADJ=14
 ICtDFT=  3500011 ScaDFX=  1.000000  1.000000  1.000000  1.000000
 FoFCou: FMM=F IPFlag=           0 FMFlag=      100000 FMFlg1=           0
         NFxFlg=           0 DoJE=T BraDBF=F KetDBF=T FulRan=T
         wScrn=  0.000000 ICntrl=     500 IOpCl=  0 I1Cent=   200000004 NGrid=           0
         NMat0=    1 NMatS0=      1 NMatT0=    0 NMatD0=    1 NMtDS0=    0 NMtDT0=    0
 Petite list used in FoFCou.
 Requested convergence on RMS density matrix=1.00D-08 within 128 cycles.
 Requested convergence on MAX density matrix=1.00D-06.
 Requested convergence on             energy=1.00D-06.
 No special actions if energy rises.
 SCF Done:  E(RM062X) =  -462.285908080     A.U. after   14 cycles
            NFock= 14  Conv=0.26D-08     -V/T= 2.0088

 **********************************************************************

            Population analysis using the SCF density.

 **********************************************************************

 Orbital symmetries:
       Occupied  (A) (A) (A) (A) (A) (A) (A) (A) (A) (A) (A) (A)
                 (A) (A) (A) (A) (A) (A) (A) (A) (A) (A) (A) (A)
                 (A) (A) (A) (A) (A) (A) (A) (A) (A) (A) (A) (A)
                 (A) (A) (A) (A) (A) (A)
       Virtual   (A) (A) (A) (A) (A) (A) (A) (A) (A) (A) (A) (A)
                 (A) (A) (A) (A) (A) (A) (A) (A) (A) (A) (A) (A)
                 (A) (A) (A) (A) (A) (A) (A) (A) (A) (A) (A) (A)
                 (A) (A) (A) (A) (A) (A) (A) (A) (A) (A) (A) (A)
                 (A) (A) (A) (A) (A) (A) (A) (A) (A) (A) (A) (A)
                 (A) (A) (A) (A) (A) (A) (A) (A) (A) (A) (A) (A)
                 (A) (A) (A) (A) (A) (A) (A) (A) (A) (A) (A) (A)
                 (A) (A) (A) (A) (A) (A) (A) (A) (A) (A) (A) (A)
                 (A) (A) (A) (A) (A) (A) (A) (A) (A) (A) (A) (A)
                 (A) (A) (A) (A) (A) (A) (A) (A) (A) (A) (A) (A)
                 (A) (A) (A) (A) (A) (A) (A) (A) (A) (A) (A) (A)
                 (A) (A) (A) (A) (A) (A) (A) (A) (A) (A) (A) (A)
                 (A) (A) (A) (A) (A) (A) (A) (A) (A) (A) (A) (A)
                 (A) (A) (A) (A) (A) (A) (A) (A) (A) (A) (A) (A)
                 (A) (A) (A) (A) (A) (A) (A) (A) (A) (A) (A) (A)
                 (A) (A) (A) (A) (A) (A) (A) (A) (A) (A) (A) (A)
                 (A) (A) (A) (A) (A) (A) (A) (A) (A)
 The electronic state is 1-A.
 Alpha  occ. eigenvalues --  -15.01244 -15.00747 -10.81562 -10.75627 -10.75423
 Alpha  occ. eigenvalues --  -10.74954 -10.74727 -10.72189 -10.68514 -10.67111
 Alpha  occ. eigenvalues --  -10.64172  -1.34617  -1.22038  -1.07406  -1.05111
 Alpha  occ. eigenvalues --   -1.00494  -0.96510  -0.95580  -0.89408  -0.86844
 Alpha  occ. eigenvalues --   -0.81934  -0.79762  -0.77175  -0.74450  -0.71660
 Alpha  occ. eigenvalues --   -0.69040  -0.68507  -0.66951  -0.66179  -0.65543
 Alpha  occ. eigenvalues --   -0.64611  -0.63003  -0.62821  -0.62257  -0.61758
 Alpha  occ. eigenvalues --   -0.57811  -0.56095  -0.53982  -0.51994  -0.51409
 Alpha  occ. eigenvalues --   -0.50513  -0.46592
 Alpha virt. eigenvalues --   -0.13114  -0.11382  -0.10276  -0.09315  -0.09202
 Alpha virt. eigenvalues --   -0.08135  -0.07591  -0.06906  -0.06401  -0.05371
 Alpha virt. eigenvalues --   -0.05102  -0.04795  -0.04039  -0.03714  -0.02972
 Alpha virt. eigenvalues --   -0.02381  -0.02126  -0.01696  -0.01346  -0.00269
 Alpha virt. eigenvalues --    0.00150   0.00688   0.01270   0.01419   0.01929
 Alpha virt. eigenvalues --    0.02540   0.03102   0.03581   0.04585   0.04961
 Alpha virt. eigenvalues --    0.05229   0.06169   0.06333   0.06930   0.07554
 Alpha virt. eigenvalues --    0.07902   0.08442   0.08775   0.09537   0.10068
 Alpha virt. eigenvalues --    0.10883   0.11438   0.11461   0.11779   0.12676
 Alpha virt. eigenvalues --    0.13127   0.13730   0.14078   0.14878   0.15082
 Alpha virt. eigenvalues --    0.15381   0.16118   0.16739   0.17215   0.17728
 Alpha virt. eigenvalues --    0.19158   0.19280   0.19644   0.20625   0.21555
 Alpha virt. eigenvalues --    0.22022   0.22848   0.23813   0.24817   0.25666
 Alpha virt. eigenvalues --    0.27275   0.28020   0.30385   0.30718   0.32420
 Alpha virt. eigenvalues --    0.33696   0.34851   0.38621   0.39206   0.52814
 Alpha virt. eigenvalues --    0.53842   0.54176   0.56087   0.57660   0.58057
 Alpha virt. eigenvalues --    0.60322   0.60813   0.61651   0.62198   0.62743
 Alpha virt. eigenvalues --    0.63096   0.64911   0.66806   0.67287   0.68961
 Alpha virt. eigenvalues --    0.69793   0.72612   0.73017   0.74788   0.77099
 Alpha virt. eigenvalues --    0.77196   0.79066   0.79511   0.79968   0.81352
 Alpha virt. eigenvalues --    0.83775   0.84547   0.87583   0.88652   0.89664
 Alpha virt. eigenvalues --    0.90964   0.91784   0.92398   0.93721   0.94461
 Alpha virt. eigenvalues --    0.96183   0.97010   0.99887   1.01150   1.01646
 Alpha virt. eigenvalues --    1.03681   1.05007   1.06197   1.06927   1.08749
 Alpha virt. eigenvalues --    1.10659   1.12407   1.14651   1.17892   1.20214
 Alpha virt. eigenvalues --    1.21657   1.21835   1.23007   1.25176   1.27672
 Alpha virt. eigenvalues --    1.30901   1.32764   1.35705   1.36156   1.40328
 Alpha virt. eigenvalues --    1.45059   1.48126   1.49875   1.52714   1.54536
 Alpha virt. eigenvalues --    1.62505   1.64391   1.71037   1.73060   1.74528
 Alpha virt. eigenvalues --    1.75966   1.78231   1.80242   1.81947   1.83592
 Alpha virt. eigenvalues --    1.84209   1.87041   1.90325   1.92269   1.93650
 Alpha virt. eigenvalues --    1.95259   1.98054   1.99714   2.00780   2.04387
 Alpha virt. eigenvalues --    2.06575   2.09166   2.11816   2.13228   2.15381
 Alpha virt. eigenvalues --    2.17739   2.18894   2.20075   2.22985   2.23869
 Alpha virt. eigenvalues --    2.27425   2.30098   2.30495   2.33178   2.34314
 Alpha virt. eigenvalues --    2.35998   2.41026   2.43288   2.44118   2.47621
 Alpha virt. eigenvalues --    2.54511   2.61377   2.63679   2.64367   2.67808
 Alpha virt. eigenvalues --    2.69711   2.74536   2.92696   2.97160   3.07750
 Alpha virt. eigenvalues --    4.01912   4.10330   4.16300   4.18265   4.21778
 Alpha virt. eigenvalues --    4.26551   4.30606   4.36808   4.39849   4.48065
 Alpha virt. eigenvalues --    4.50579
          Condensed to atoms (all electrons):
               1          2          3          4          5          6
     1  N    6.687112   0.215712   0.100369  -0.254291   0.575014  -0.044566
     2  C    0.215712   5.501395   0.179699   0.136194  -0.359724   0.353561
     3  C    0.100369   0.179699   5.417901   0.187918   0.050916  -0.008106
     4  N   -0.254291   0.136194   0.187918   6.960398   0.346907   0.002265
     5  C    0.575014  -0.359724   0.050916   0.346907   6.287606   0.029816
     6  H   -0.044566   0.353561  -0.008106   0.002265   0.029816   0.396213
     7  H    0.015016  -0.054629   0.401986  -0.045793   0.022836  -0.000191
     8  C    0.188634  -0.114367   0.091303  -0.029818  -0.185519  -0.013919
     9  H   -0.017262   0.007024  -0.002998   0.000269  -0.030541   0.000049
    10  H   -0.045072  -0.016609   0.017205  -0.002749   0.021768   0.000943
    11  H   -0.023263  -0.001237  -0.001362  -0.000516  -0.020206   0.000059
    12  C   -0.034131   0.091254  -0.209033   0.129268  -0.230077  -0.002386
    13  H    0.006513  -0.008293   0.022797  -0.036507   0.008887   0.000002
    14  H   -0.004981   0.012038  -0.035791  -0.038114   0.000736  -0.000003
    15  C    0.000601   0.009921  -0.044191  -0.075690  -0.082760  -0.000236
    16  H   -0.000532   0.001424   0.002223   0.008098  -0.002438   0.000000
    17  H    0.004482  -0.003601   0.006867  -0.000467   0.020267   0.000001
    18  C   -0.013086   0.016239  -0.022195   0.065637   0.031833   0.000202
    19  H   -0.012754   0.011795  -0.008216   0.044095   0.005752  -0.000002
    20  H    0.003539  -0.001046   0.003427  -0.014463   0.045967   0.000000
    21  C    0.005795   0.002937  -0.007671  -0.008466   0.038585   0.000050
    22  H   -0.000078   0.000048  -0.000404   0.000292  -0.001844   0.000000
    23  H    0.000179  -0.000255   0.000828  -0.001240   0.002589   0.000000
    24  H   -0.000035   0.000331  -0.000155   0.000897  -0.000336   0.000000
    25  C   -0.138403   0.078841  -0.042038  -0.087085  -0.529659   0.002548
    26  H   -0.002352   0.001248  -0.002984  -0.008132  -0.012938   0.000002
    27  H   -0.005845   0.005018  -0.004531   0.011756  -0.100041  -0.000002
    28  H    0.008984  -0.004471   0.008464  -0.005227  -0.035178   0.000002
               7          8          9         10         11         12
     1  N    0.015016   0.188634  -0.017262  -0.045072  -0.023263  -0.034131
     2  C   -0.054629  -0.114367   0.007024  -0.016609  -0.001237   0.091254
     3  C    0.401986   0.091303  -0.002998   0.017205  -0.001362  -0.209033
     4  N   -0.045793  -0.029818   0.000269  -0.002749  -0.000516   0.129268
     5  C    0.022836  -0.185519  -0.030541   0.021768  -0.020206  -0.230077
     6  H   -0.000191  -0.013919   0.000049   0.000943   0.000059  -0.002386
     7  H    0.394703  -0.001435   0.000002  -0.000001   0.000002  -0.031482
     8  C   -0.001435   5.376774   0.381319   0.381423   0.380178  -0.011756
     9  H    0.000002   0.381319   0.426172  -0.018274  -0.030224  -0.000298
    10  H   -0.000001   0.381423  -0.018274   0.429337  -0.018634  -0.000080
    11  H    0.000002   0.380178  -0.030224  -0.018634   0.427236  -0.000451
    12  C   -0.031482  -0.011756  -0.000298  -0.000080  -0.000451   6.189386
    13  H    0.000010   0.001865   0.000000   0.000000   0.000000   0.373811
    14  H   -0.000106  -0.000828   0.000000   0.000000   0.000000   0.448353
    15  C    0.007803  -0.001354  -0.000338  -0.000099   0.000607  -0.204436
    16  H   -0.000011  -0.000049   0.000000   0.000000   0.000000  -0.047531
    17  H   -0.000445   0.000837   0.000000   0.000000   0.000000  -0.089436
    18  C    0.000128  -0.002080   0.000326  -0.000028  -0.000964   0.033011
    19  H    0.000009  -0.003013   0.000000   0.000000  -0.000004  -0.029011
    20  H   -0.000001   0.001483   0.000000   0.000000   0.000000  -0.020139
    21  C    0.000506   0.001883  -0.000002  -0.000006   0.000015  -0.104600
    22  H    0.000000  -0.000052   0.000000   0.000000   0.000000  -0.001896
    23  H    0.000000   0.000102   0.000000   0.000000   0.000000  -0.003742
    24  H    0.000000  -0.000014   0.000000   0.000000   0.000000  -0.004698
    25  C    0.002945  -0.069766   0.007235  -0.008588   0.011460   0.008522
    26  H    0.000001   0.002146   0.000145  -0.000004  -0.000023  -0.002055
    27  H    0.000002   0.001151  -0.001615   0.000164  -0.001078   0.000843
    28  H    0.000000   0.002434  -0.000007  -0.000003   0.000099  -0.003538
              13         14         15         16         17         18
     1  N    0.006513  -0.004981   0.000601  -0.000532   0.004482  -0.013086
     2  C   -0.008293   0.012038   0.009921   0.001424  -0.003601   0.016239
     3  C    0.022797  -0.035791  -0.044191   0.002223   0.006867  -0.022195
     4  N   -0.036507  -0.038114  -0.075690   0.008098  -0.000467   0.065637
     5  C    0.008887   0.000736  -0.082760  -0.002438   0.020267   0.031833
     6  H    0.000002  -0.000003  -0.000236   0.000000   0.000001   0.000202
     7  H    0.000010  -0.000106   0.007803  -0.000011  -0.000445   0.000128
     8  C    0.001865  -0.000828  -0.001354  -0.000049   0.000837  -0.002080
     9  H    0.000000   0.000000  -0.000338   0.000000   0.000000   0.000326
    10  H    0.000000   0.000000  -0.000099   0.000000   0.000000  -0.000028
    11  H    0.000000   0.000000   0.000607   0.000000   0.000000  -0.000964
    12  C    0.373811   0.448353  -0.204436  -0.047531  -0.089436   0.033011
    13  H    0.456017  -0.024752  -0.044666  -0.002550   0.003575  -0.019797
    14  H   -0.024752   0.440803  -0.085602  -0.001598  -0.003550   0.019938
    15  C   -0.044666  -0.085602   6.210824   0.401114   0.451530  -0.095026
    16  H   -0.002550  -0.001598   0.401114   0.458841  -0.025885  -0.024184
    17  H    0.003575  -0.003550   0.451530  -0.025885   0.475781  -0.088896
    18  C   -0.019797   0.019938  -0.095026  -0.024184  -0.088896   6.217842
    19  H   -0.000246  -0.000092  -0.053780   0.003966  -0.003828   0.395045
    20  H    0.002335  -0.000063  -0.058390  -0.004504   0.003998   0.309689
    21  C   -0.002351  -0.000135  -0.067082  -0.022707   0.014339  -0.341146
    22  H   -0.000002   0.000001   0.025547  -0.000012  -0.000006  -0.090768
    23  H   -0.000001   0.000002  -0.006414  -0.000268   0.002250  -0.118608
    24  H   -0.000002  -0.000003  -0.010096   0.002464  -0.000243  -0.051973
    25  C    0.008972  -0.001585   0.004963   0.001135  -0.007796  -0.063880
    26  H   -0.000444   0.000114  -0.002123   0.000002   0.000000  -0.005050
    27  H    0.000186  -0.000004   0.001918   0.000000   0.000001   0.000733
    28  H   -0.002492  -0.000024  -0.007574   0.000003  -0.000005   0.010332
              19         20         21         22         23         24
     1  N   -0.012754   0.003539   0.005795  -0.000078   0.000179  -0.000035
     2  C    0.011795  -0.001046   0.002937   0.000048  -0.000255   0.000331
     3  C   -0.008216   0.003427  -0.007671  -0.000404   0.000828  -0.000155
     4  N    0.044095  -0.014463  -0.008466   0.000292  -0.001240   0.000897
     5  C    0.005752   0.045967   0.038585  -0.001844   0.002589  -0.000336
     6  H   -0.000002   0.000000   0.000050   0.000000   0.000000   0.000000
     7  H    0.000009  -0.000001   0.000506   0.000000   0.000000   0.000000
     8  C   -0.003013   0.001483   0.001883  -0.000052   0.000102  -0.000014
     9  H    0.000000   0.000000  -0.000002   0.000000   0.000000   0.000000
    10  H    0.000000   0.000000  -0.000006   0.000000   0.000000   0.000000
    11  H   -0.000004   0.000000   0.000015   0.000000   0.000000   0.000000
    12  C   -0.029011  -0.020139  -0.104600  -0.001896  -0.003742  -0.004698
    13  H   -0.000246   0.002335  -0.002351  -0.000002  -0.000001  -0.000002
    14  H   -0.000092  -0.000063  -0.000135   0.000001   0.000002  -0.000003
    15  C   -0.053780  -0.058390  -0.067082   0.025547  -0.006414  -0.010096
    16  H    0.003966  -0.004504  -0.022707  -0.000012  -0.000268   0.002464
    17  H   -0.003828   0.003998   0.014339  -0.000006   0.002250  -0.000243
    18  C    0.395045   0.309689  -0.341146  -0.090768  -0.118608  -0.051973
    19  H    0.521012  -0.038644  -0.035704  -0.003151  -0.005111   0.004101
    20  H   -0.038644   0.508740   0.077233  -0.002839   0.003877  -0.004744
    21  C   -0.035704   0.077233   6.071290   0.424082   0.474634   0.412684
    22  H   -0.003151  -0.002839   0.424082   0.466783  -0.023832  -0.023062
    23  H   -0.005111   0.003877   0.474634  -0.023832   0.483060  -0.028920
    24  H    0.004101  -0.004744   0.412684  -0.023062  -0.028920   0.477313
    25  C   -0.008258  -0.035709  -0.040036   0.000776  -0.001282  -0.000212
    26  H    0.000024   0.000030  -0.001102   0.000000   0.000000   0.000000
    27  H    0.000002   0.000049   0.000023   0.000000   0.000000   0.000000
    28  H   -0.000647   0.000167   0.010493  -0.000007   0.000000   0.000001
              25         26         27         28
     1  N   -0.138403  -0.002352  -0.005845   0.008984
     2  C    0.078841   0.001248   0.005018  -0.004471
     3  C   -0.042038  -0.002984  -0.004531   0.008464
     4  N   -0.087085  -0.008132   0.011756  -0.005227
     5  C   -0.529659  -0.012938  -0.100041  -0.035178
     6  H    0.002548   0.000002  -0.000002   0.000002
     7  H    0.002945   0.000001   0.000002   0.000000
     8  C   -0.069766   0.002146   0.001151   0.002434
     9  H    0.007235   0.000145  -0.001615  -0.000007
    10  H   -0.008588  -0.000004   0.000164  -0.000003
    11  H    0.011460  -0.000023  -0.001078   0.000099
    12  C    0.008522  -0.002055   0.000843  -0.003538
    13  H    0.008972  -0.000444   0.000186  -0.002492
    14  H   -0.001585   0.000114  -0.000004  -0.000024
    15  C    0.004963  -0.002123   0.001918  -0.007574
    16  H    0.001135   0.000002   0.000000   0.000003
    17  H   -0.007796   0.000000   0.000001  -0.000005
    18  C   -0.063880  -0.005050   0.000733   0.010332
    19  H   -0.008258   0.000024   0.000002  -0.000647
    20  H   -0.035709   0.000030   0.000049   0.000167
    21  C   -0.040036  -0.001102   0.000023   0.010493
    22  H    0.000776   0.000000   0.000000  -0.000007
    23  H   -0.001282   0.000000   0.000000   0.000000
    24  H   -0.000212   0.000000   0.000000   0.000001
    25  C    6.604669   0.369249   0.431209   0.351331
    26  H    0.369249   0.412218  -0.018314  -0.022946
    27  H    0.431209  -0.018314   0.435175  -0.018042
    28  H    0.351331  -0.022946  -0.018042   0.418207
 Mulliken charges:
               1
     1  N   -0.215298
     2  C   -0.060447
     3  C   -0.102227
     4  N   -0.285435
     5  C    0.101783
     6  H    0.283700
     7  H    0.288146
     8  C   -0.377562
     9  H    0.279020
    10  H    0.259306
    11  H    0.278305
    12  C   -0.243671
    13  H    0.257132
    14  H    0.275246
    15  C   -0.274971
    16  H    0.252999
    17  H    0.240229
    18  C   -0.163273
    19  H    0.216660
    20  H    0.220006
    21  C   -0.903541
    22  H    0.230424
    23  H    0.222151
    24  H    0.226701
    25  C   -0.849557
    26  H    0.293289
    27  H    0.261240
    28  H    0.289644
 Sum of Mulliken charges =   1.00000
 Mulliken charges with hydrogens summed into heavy atoms:
               1
     1  N   -0.215298
     2  C    0.223253
     3  C    0.185919
     4  N   -0.285435
     5  C    0.101783
     8  C    0.439068
    12  C    0.288707
    15  C    0.218257
    18  C    0.273394
    21  C   -0.224265
    25  C   -0.005383
 Electronic spatial extent (au):  <R**2>=           2141.5284
 Charge=              1.0000 electrons
 Dipole moment (field-independent basis, Debye):
    X=             -4.0012    Y=             -0.0699    Z=              0.6390  Tot=              4.0525
 Quadrupole moment (field-independent basis, Debye-Ang):
   XX=            -40.8215   YY=            -54.2689   ZZ=            -60.5416
   XY=              3.6683   XZ=              6.6579   YZ=             -2.0871
 Traceless Quadrupole moment (field-independent basis, Debye-Ang):
   XX=             11.0558   YY=             -2.3915   ZZ=             -8.6642
   XY=              3.6683   XZ=              6.6579   YZ=             -2.0871
 Octapole moment (field-independent basis, Debye-Ang**2):
  XXX=            -48.3135  YYY=              7.3537  ZZZ=              7.5112  XYY=            -12.9664
  XXY=            -10.6080  XXZ=            -19.6000  XZZ=             -6.9571  YZZ=             -1.4914
  YYZ=             -1.1676  XYZ=              8.1883
 Hexadecapole moment (field-independent basis, Debye-Ang**3):
 XXXX=          -1653.8607 YYYY=           -487.0511 ZZZZ=           -379.5074 XXXY=             27.3255
 XXXZ=             72.0711 YYYX=             12.1284 YYYZ=            -10.7237 ZZZX=             17.7590
 ZZZY=             -3.5045 XXYY=           -377.9221 XXZZ=           -348.1349 YYZZ=           -141.4502
 XXYZ=             -5.0764 YYXZ=             13.7567 ZZXY=              3.0434
 N-N= 6.508766464193D+02 E-N=-2.357341373964D+03  KE= 4.582425467592D+02
 ******************************Gaussian NBO Version 3.1******************************
             N A T U R A L   A T O M I C   O R B I T A L   A N D
          N A T U R A L   B O N D   O R B I T A L   A N A L Y S I S
 ******************************Gaussian NBO Version 3.1******************************
       /RESON  / : Allow strongly delocalized NBO set

 Analyzing the SCF density

 Job title: 1-cation                                                        

 Storage needed:    179770 in NPA,    237728 in NBO (  33550232 available)


 NATURAL POPULATIONS:  Natural atomic orbital occupancies 
                                                          
   NAO  Atom  No  lang   Type(AO)    Occupancy      Energy
 ----------------------------------------------------------
     1    N    1  S      Cor( 1S)     1.99927     -14.81959
     2    N    1  S      Val( 2S)     1.19013      -0.74704
     3    N    1  S      Ryd( 4S)     0.00066       1.22386
     4    N    1  S      Ryd( 3S)     0.00007       0.97051
     5    N    1  S      Ryd( 5S)     0.00002       3.87758
     6    N    1  px     Val( 2p)     1.38311      -0.48057
     7    N    1  px     Ryd( 4p)     0.00301       1.07488
     8    N    1  px     Ryd( 3p)     0.00039       0.43948
     9    N    1  py     Val( 2p)     1.34710      -0.47506
    10    N    1  py     Ryd( 4p)     0.00231       1.06728
    11    N    1  py     Ryd( 3p)     0.00034       0.47641
    12    N    1  pz     Val( 2p)     1.43716      -0.47589
    13    N    1  pz     Ryd( 4p)     0.00273       0.76797
    14    N    1  pz     Ryd( 3p)     0.00030       0.36697
    15    N    1  dxy    Ryd( 3d)     0.00078       2.17763
    16    N    1  dxz    Ryd( 3d)     0.00074       2.23317
    17    N    1  dyz    Ryd( 3d)     0.00070       2.01467
    18    N    1  dx2y2  Ryd( 3d)     0.00074       2.18042
    19    N    1  dz2    Ryd( 3d)     0.00086       1.94461

    20    C    2  S      Cor( 1S)     1.99917     -10.61287
    21    C    2  S      Val( 2S)     0.94435      -0.36745
    22    C    2  S      Ryd( 4S)     0.00120       0.94489
    23    C    2  S      Ryd( 5S)     0.00004       4.00165
    24    C    2  S      Ryd( 3S)     0.00004       0.46533
    25    C    2  px     Val( 2p)     1.12135      -0.26754
    26    C    2  px     Ryd( 4p)     0.00470       0.69250
    27    C    2  px     Ryd( 3p)     0.00029       0.26165
    28    C    2  py     Val( 2p)     0.86201      -0.19686
    29    C    2  py     Ryd( 4p)     0.00484       0.59916
    30    C    2  py     Ryd( 3p)     0.00011       0.23675
    31    C    2  pz     Val( 2p)     1.10224      -0.28172
    32    C    2  pz     Ryd( 4p)     0.00273       0.65582
    33    C    2  pz     Ryd( 3p)     0.00036       0.18502
    34    C    2  dxy    Ryd( 3d)     0.00070       2.10241
    35    C    2  dxz    Ryd( 3d)     0.00074       2.17717
    36    C    2  dyz    Ryd( 3d)     0.00092       2.02971
    37    C    2  dx2y2  Ryd( 3d)     0.00103       2.12052
    38    C    2  dz2    Ryd( 3d)     0.00082       1.85851

    39    C    3  S      Cor( 1S)     1.99917     -10.61084
    40    C    3  S      Val( 2S)     0.94227      -0.36560
    41    C    3  S      Ryd( 3S)     0.00122       0.95615
    42    C    3  S      Ryd( 5S)     0.00004       2.73863
    43    C    3  S      Ryd( 4S)     0.00002       1.72835
    44    C    3  px     Val( 2p)     1.05457      -0.25650
    45    C    3  px     Ryd( 4p)     0.00473       0.66289
    46    C    3  px     Ryd( 3p)     0.00024       0.33183
    47    C    3  py     Val( 2p)     1.06430      -0.22645
    48    C    3  py     Ryd( 4p)     0.00377       0.81847
    49    C    3  py     Ryd( 3p)     0.00021       0.21124
    50    C    3  pz     Val( 2p)     0.97220      -0.26017
    51    C    3  pz     Ryd( 4p)     0.00337       0.52640
    52    C    3  pz     Ryd( 3p)     0.00031       0.25044
    53    C    3  dxy    Ryd( 3d)     0.00102       2.15726
    54    C    3  dxz    Ryd( 3d)     0.00049       2.13083
    55    C    3  dyz    Ryd( 3d)     0.00099       2.00590
    56    C    3  dx2y2  Ryd( 3d)     0.00080       2.11449
    57    C    3  dz2    Ryd( 3d)     0.00093       1.94936

    58    N    4  S      Cor( 1S)     1.99927     -14.81142
    59    N    4  S      Val( 2S)     1.18976      -0.74120
    60    N    4  S      Ryd( 3S)     0.00115       1.10699
    61    N    4  S      Ryd( 4S)     0.00031       1.20577
    62    N    4  S      Ryd( 5S)     0.00005       2.99112
    63    N    4  px     Val( 2p)     1.38521      -0.47540
    64    N    4  px     Ryd( 4p)     0.00389       1.14689
    65    N    4  px     Ryd( 3p)     0.00049       0.47054
    66    N    4  py     Val( 2p)     1.33565      -0.47075
    67    N    4  py     Ryd( 4p)     0.00224       0.95240
    68    N    4  py     Ryd( 3p)     0.00051       0.47505
    69    N    4  pz     Val( 2p)     1.43901      -0.47142
    70    N    4  pz     Ryd( 4p)     0.00319       0.90995
    71    N    4  pz     Ryd( 3p)     0.00031       0.37789
    72    N    4  dxy    Ryd( 3d)     0.00075       2.26885
    73    N    4  dxz    Ryd( 3d)     0.00077       2.16174
    74    N    4  dyz    Ryd( 3d)     0.00084       2.07508
    75    N    4  dx2y2  Ryd( 3d)     0.00071       2.13679
    76    N    4  dz2    Ryd( 3d)     0.00084       1.94978

    77    C    5  S      Cor( 1S)     1.99930     -10.66924
    78    C    5  S      Val( 2S)     0.80105      -0.33224
    79    C    5  S      Ryd( 4S)     0.00179       0.95596
    80    C    5  S      Ryd( 3S)     0.00081       0.52629
    81    C    5  S      Ryd( 5S)     0.00008       3.97160
    82    C    5  px     Val( 2p)     0.82043      -0.21369
    83    C    5  px     Ryd( 4p)     0.00413       0.62722
    84    C    5  px     Ryd( 3p)     0.00038       0.21083
    85    C    5  py     Val( 2p)     0.96094      -0.22717
    86    C    5  py     Ryd( 4p)     0.00620       0.82313
    87    C    5  py     Ryd( 3p)     0.00041       0.21131
    88    C    5  pz     Val( 2p)     0.90601      -0.26576
    89    C    5  pz     Ryd( 4p)     0.00352       0.62058
    90    C    5  pz     Ryd( 3p)     0.00041       0.12731
    91    C    5  dxy    Ryd( 3d)     0.00137       2.17635
    92    C    5  dxz    Ryd( 3d)     0.00092       2.13315
    93    C    5  dyz    Ryd( 3d)     0.00121       2.07437
    94    C    5  dx2y2  Ryd( 3d)     0.00128       2.14778
    95    C    5  dz2    Ryd( 3d)     0.00145       1.94874

    96    H    6  S      Val( 1S)     0.71515      -0.03735
    97    H    6  S      Ryd( 2S)     0.00043       0.46686

    98    H    7  S      Val( 1S)     0.71456      -0.03534
    99    H    7  S      Ryd( 2S)     0.00053       0.48773

   100    C    8  S      Cor( 1S)     1.99956     -10.62407
   101    C    8  S      Val( 2S)     1.10306      -0.46475
   102    C    8  S      Ryd( 4S)     0.00069       1.12712
   103    C    8  S      Ryd( 3S)     0.00009       0.48291
   104    C    8  S      Ryd( 5S)     0.00001       4.05491
   105    C    8  px     Val( 2p)     0.99880      -0.25049
   106    C    8  px     Ryd( 4p)     0.00210       0.48340
   107    C    8  px     Ryd( 3p)     0.00013       0.11771
   108    C    8  py     Val( 2p)     1.13723      -0.27393
   109    C    8  py     Ryd( 4p)     0.00266       0.49312
   110    C    8  py     Ryd( 3p)     0.00010       0.15854
   111    C    8  pz     Val( 2p)     1.24367      -0.28802
   112    C    8  pz     Ryd( 4p)     0.00158       0.53639
   113    C    8  pz     Ryd( 3p)     0.00011       0.16025
   114    C    8  dxy    Ryd( 3d)     0.00113       2.08666
   115    C    8  dxz    Ryd( 3d)     0.00093       2.03706
   116    C    8  dyz    Ryd( 3d)     0.00101       2.02688
   117    C    8  dx2y2  Ryd( 3d)     0.00044       1.86626
   118    C    8  dz2    Ryd( 3d)     0.00056       1.80752

   119    H    9  S      Val( 1S)     0.72797      -0.05347
   120    H    9  S      Ryd( 2S)     0.00031       0.61470

   121    H   10  S      Val( 1S)     0.72304      -0.04971
   122    H   10  S      Ryd( 2S)     0.00032       0.59894

   123    H   11  S      Val( 1S)     0.72845      -0.05415
   124    H   11  S      Ryd( 2S)     0.00032       0.61526

   125    C   12  S      Cor( 1S)     1.99940     -10.61169
   126    C   12  S      Val( 2S)     1.02652      -0.42576
   127    C   12  S      Ryd( 4S)     0.00102       1.30870
   128    C   12  S      Ryd( 3S)     0.00012       0.49912
   129    C   12  S      Ryd( 5S)     0.00002       4.24942
   130    C   12  px     Val( 2p)     0.85041      -0.21628
   131    C   12  px     Ryd( 4p)     0.00222       0.49720
   132    C   12  px     Ryd( 3p)     0.00024       0.19512
   133    C   12  py     Val( 2p)     1.29145      -0.29208
   134    C   12  py     Ryd( 4p)     0.00607       0.79599
   135    C   12  py     Ryd( 3p)     0.00010       0.24673
   136    C   12  pz     Val( 2p)     1.08435      -0.25577
   137    C   12  pz     Ryd( 4p)     0.00154       0.55238
   138    C   12  pz     Ryd( 3p)     0.00017       0.20034
   139    C   12  dxy    Ryd( 3d)     0.00035       1.87335
   140    C   12  dxz    Ryd( 3d)     0.00101       2.19185
   141    C   12  dyz    Ryd( 3d)     0.00124       2.11264
   142    C   12  dx2y2  Ryd( 3d)     0.00125       2.15634
   143    C   12  dz2    Ryd( 3d)     0.00047       1.79941

   144    H   13  S      Val( 1S)     0.73399      -0.05548
   145    H   13  S      Ryd( 2S)     0.00067       0.67524

   146    H   14  S      Val( 1S)     0.71837      -0.03887
   147    H   14  S      Ryd( 2S)     0.00046       0.62433

   148    C   15  S      Cor( 1S)     1.99941     -10.54254
   149    C   15  S      Val( 2S)     1.03944      -0.40825
   150    C   15  S      Ryd( 4S)     0.00085       1.30339
   151    C   15  S      Ryd( 3S)     0.00015       0.77064
   152    C   15  S      Ryd( 5S)     0.00001       3.95980
   153    C   15  px     Val( 2p)     1.12723      -0.23486
   154    C   15  px     Ryd( 4p)     0.00202       0.66862
   155    C   15  px     Ryd( 3p)     0.00027       0.21389
   156    C   15  py     Val( 2p)     1.15925      -0.23398
   157    C   15  py     Ryd( 4p)     0.00208       0.61799
   158    C   15  py     Ryd( 3p)     0.00006       0.13147
   159    C   15  pz     Val( 2p)     1.16056      -0.23484
   160    C   15  pz     Ryd( 4p)     0.00241       0.68815
   161    C   15  pz     Ryd( 3p)     0.00014       0.25383
   162    C   15  dxy    Ryd( 3d)     0.00022       1.82398
   163    C   15  dxz    Ryd( 3d)     0.00096       2.18994
   164    C   15  dyz    Ryd( 3d)     0.00094       2.15409
   165    C   15  dx2y2  Ryd( 3d)     0.00085       2.16488
   166    C   15  dz2    Ryd( 3d)     0.00017       1.79188

   167    H   16  S      Val( 1S)     0.72349      -0.02365
   168    H   16  S      Ryd( 2S)     0.00046       0.61590

   169    H   17  S      Val( 1S)     0.74638      -0.03861
   170    H   17  S      Ryd( 2S)     0.00070       0.65241

   171    C   18  S      Cor( 1S)     1.99945     -10.52967
   172    C   18  S      Val( 2S)     1.03411      -0.39078
   173    C   18  S      Ryd( 4S)     0.00077       1.25492
   174    C   18  S      Ryd( 3S)     0.00012       0.62864
   175    C   18  S      Ryd( 5S)     0.00001       4.03995
   176    C   18  px     Val( 2p)     1.16476      -0.22331
   177    C   18  px     Ryd( 4p)     0.00205       0.69475
   178    C   18  px     Ryd( 3p)     0.00023       0.32026
   179    C   18  py     Val( 2p)     1.12167      -0.21380
   180    C   18  py     Ryd( 4p)     0.00139       0.59395
   181    C   18  py     Ryd( 3p)     0.00014       0.20357
   182    C   18  pz     Val( 2p)     1.16037      -0.21933
   183    C   18  pz     Ryd( 4p)     0.00214       0.69523
   184    C   18  pz     Ryd( 3p)     0.00019       0.25051
   185    C   18  dxy    Ryd( 3d)     0.00022       1.80334
   186    C   18  dxz    Ryd( 3d)     0.00088       2.19923
   187    C   18  dyz    Ryd( 3d)     0.00103       2.17036
   188    C   18  dx2y2  Ryd( 3d)     0.00094       2.17217
   189    C   18  dz2    Ryd( 3d)     0.00021       1.79562

   190    H   19  S      Val( 1S)     0.76965      -0.04222
   191    H   19  S      Ryd( 2S)     0.00083       0.74832

   192    H   20  S      Val( 1S)     0.75912      -0.03221
   193    H   20  S      Ryd( 2S)     0.00066       0.67291

   194    C   21  S      Cor( 1S)     1.99957     -10.50710
   195    C   21  S      Val( 2S)     1.10161      -0.39369
   196    C   21  S      Ryd( 4S)     0.00032       1.13449
   197    C   21  S      Ryd( 3S)     0.00018       0.62781
   198    C   21  S      Ryd( 5S)     0.00000       4.02672
   199    C   21  px     Val( 2p)     1.12758      -0.18984
   200    C   21  px     Ryd( 4p)     0.00132       0.54839
   201    C   21  px     Ryd( 3p)     0.00009       0.10601
   202    C   21  py     Val( 2p)     1.26995      -0.21065
   203    C   21  py     Ryd( 4p)     0.00217       0.64752
   204    C   21  py     Ryd( 3p)     0.00006       0.17515
   205    C   21  pz     Val( 2p)     1.19685      -0.20010
   206    C   21  pz     Ryd( 4p)     0.00164       0.59515
   207    C   21  pz     Ryd( 3p)     0.00008       0.13426
   208    C   21  dxy    Ryd( 3d)     0.00011       1.76057
   209    C   21  dxz    Ryd( 3d)     0.00081       2.18208
   210    C   21  dyz    Ryd( 3d)     0.00110       2.14493
   211    C   21  dx2y2  Ryd( 3d)     0.00097       2.16686
   212    C   21  dz2    Ryd( 3d)     0.00010       1.77374

   213    H   22  S      Val( 1S)     0.73987       0.01107
   214    H   22  S      Ryd( 2S)     0.00028       0.62848

   215    H   23  S      Val( 1S)     0.75325      -0.00161
   216    H   23  S      Ryd( 2S)     0.00035       0.64000

   217    H   24  S      Val( 1S)     0.74922       0.00311
   218    H   24  S      Ryd( 2S)     0.00034       0.63973

   219    C   25  S      Cor( 1S)     1.99944     -10.58287
   220    C   25  S      Val( 2S)     1.10613      -0.46184
   221    C   25  S      Ryd( 4S)     0.00044       1.23060
   222    C   25  S      Ryd( 3S)     0.00003       0.56570
   223    C   25  S      Ryd( 5S)     0.00000       4.03946
   224    C   25  px     Val( 2p)     1.29974      -0.29368
   225    C   25  px     Ryd( 4p)     0.00124       0.53725
   226    C   25  px     Ryd( 3p)     0.00007       0.27693
   227    C   25  py     Val( 2p)     1.10014      -0.26558
   228    C   25  py     Ryd( 4p)     0.00178       0.45416
   229    C   25  py     Ryd( 3p)     0.00004       0.18609
   230    C   25  pz     Val( 2p)     1.25250      -0.28852
   231    C   25  pz     Ryd( 4p)     0.00091       0.48490
   232    C   25  pz     Ryd( 3p)     0.00010       0.18157
   233    C   25  dxy    Ryd( 3d)     0.00057       2.04793
   234    C   25  dxz    Ryd( 3d)     0.00037       1.88418
   235    C   25  dyz    Ryd( 3d)     0.00044       1.91911
   236    C   25  dx2y2  Ryd( 3d)     0.00057       2.00513
   237    C   25  dz2    Ryd( 3d)     0.00085       2.08764

   238    H   26  S      Val( 1S)     0.70519      -0.04767
   239    H   26  S      Ryd( 2S)     0.00043       0.62391

   240    H   27  S      Val( 1S)     0.71268      -0.04857
   241    H   27  S      Ryd( 2S)     0.00030       0.63589

   242    H   28  S      Val( 1S)     0.70711      -0.04565
   243    H   28  S      Ryd( 2S)     0.00042       0.67028

 WARNING:  Population inversion found on atom  N    1
           Population inversion found on atom  C    2
           Population inversion found on atom  C    3
           Population inversion found on atom  N    4
           Population inversion found on atom  C    5
           Population inversion found on atom  C    8
           Population inversion found on atom  C   12
           Population inversion found on atom  C   15
           Population inversion found on atom  C   18
           Population inversion found on atom  C   21
           Population inversion found on atom  C   25


 Summary of Natural Population Analysis:                  
                                                          
                                       Natural Population 
                Natural  -----------------------------------------------
    Atom  No    Charge         Core      Valence    Rydberg      Total
 -----------------------------------------------------------------------
      N    1   -0.37044      1.99927     5.35750    0.01366     7.37044
      C    2   -0.04763      1.99917     4.02994    0.01852     6.04763
      C    3   -0.05064      1.99917     4.03334    0.01813     6.05064
      N    4   -0.36494      1.99927     5.34963    0.01604     7.36494
      C    5    0.48831      1.99930     3.48842    0.02397     5.51169
      H    6    0.28443      0.00000     0.71515    0.00043     0.71557
      H    7    0.28491      0.00000     0.71456    0.00053     0.71509
      C    8   -0.49384      1.99956     4.48276    0.01151     6.49384
      H    9    0.27172      0.00000     0.72797    0.00031     0.72828
      H   10    0.27664      0.00000     0.72304    0.00032     0.72336
      H   11    0.27123      0.00000     0.72845    0.00032     0.72877
      C   12   -0.26795      1.99940     4.25273    0.01582     6.26795
      H   13    0.26534      0.00000     0.73399    0.00067     0.73466
      H   14    0.28116      0.00000     0.71837    0.00046     0.71884
      C   15   -0.49703      1.99941     4.48648    0.01114     6.49703
      H   16    0.27605      0.00000     0.72349    0.00046     0.72395
      H   17    0.25291      0.00000     0.74638    0.00070     0.74709
      C   18   -0.49067      1.99945     4.48090    0.01032     6.49067
      H   19    0.22953      0.00000     0.76965    0.00083     0.77047
      H   20    0.24022      0.00000     0.75912    0.00066     0.75978
      C   21   -0.70449      1.99957     4.69599    0.00894     6.70449
      H   22    0.25984      0.00000     0.73987    0.00028     0.74016
      H   23    0.24640      0.00000     0.75325    0.00035     0.75360
      H   24    0.25044      0.00000     0.74922    0.00034     0.74956
      C   25   -0.76539      1.99944     4.75852    0.00743     6.76539
      H   26    0.29438      0.00000     0.70519    0.00043     0.70562
      H   27    0.28703      0.00000     0.71268    0.00030     0.71297
      H   28    0.29246      0.00000     0.70711    0.00042     0.70754
 =======================================================================
   * Total *    1.00000     21.99300    61.84370    0.16330    84.00000

                                 Natural Population      
 --------------------------------------------------------
   Core                      21.99300 ( 99.9682% of  22)
   Valence                   61.84370 ( 99.7479% of  62)
   Natural Minimal Basis     83.83670 ( 99.8056% of  84)
   Natural Rydberg Basis      0.16330 (  0.1944% of  84)
 --------------------------------------------------------

    Atom  No          Natural Electron Configuration
 ----------------------------------------------------------------------------
      N    1      [core]2S( 1.19)2p( 4.17)4p( 0.01)
      C    2      [core]2S( 0.94)2p( 3.09)4p( 0.01)
      C    3      [core]2S( 0.94)2p( 3.09)4p( 0.01)
      N    4      [core]2S( 1.19)2p( 4.16)4p( 0.01)
      C    5      [core]2S( 0.80)2p( 2.69)3d( 0.01)4p( 0.01)
      H    6            1S( 0.72)
      H    7            1S( 0.71)
      C    8      [core]2S( 1.10)2p( 3.38)4p( 0.01)
      H    9            1S( 0.73)
      H   10            1S( 0.72)
      H   11            1S( 0.73)
      C   12      [core]2S( 1.03)2p( 3.23)4p( 0.01)
      H   13            1S( 0.73)
      H   14            1S( 0.72)
      C   15      [core]2S( 1.04)2p( 3.45)4p( 0.01)
      H   16            1S( 0.72)
      H   17            1S( 0.75)
      C   18      [core]2S( 1.03)2p( 3.45)4p( 0.01)
      H   19            1S( 0.77)
      H   20            1S( 0.76)
      C   21      [core]2S( 1.10)2p( 3.59)4p( 0.01)
      H   22            1S( 0.74)
      H   23            1S( 0.75)
      H   24            1S( 0.75)
      C   25      [core]2S( 1.11)2p( 3.65)
      H   26            1S( 0.71)
      H   27            1S( 0.71)
      H   28            1S( 0.71)


 NATURAL BOND ORBITAL ANALYSIS:

                       Occupancies       Lewis Structure    Low   High
           Occ.    -------------------  -----------------   occ   occ
  Cycle   Thresh.   Lewis   Non-Lewis     CR  BD  3C  LP    (L)   (NL)   Dev
 =============================================================================
   1(1)    1.90    81.56792   2.43208     11  28   0   3     3      2    0.64
   2(2)    1.90    81.56792   2.43208     11  28   0   3     3      2    0.64
   3(1)    1.80    82.76284   1.23716     11  30   0   1     1      2    0.30
   4(2)    1.80    82.77536   1.22464     11  30   0   1     1      2    0.29
   5(3)    1.80    82.76284   1.23716     11  30   0   1     1      2    0.30
   6(4)    1.80    82.27450   1.72550     11  30   0   1     1      2    0.64
   7(5)    1.80    82.77536   1.22464     11  30   0   1     1      2    0.29
   8(1)    1.70    82.77536   1.22464     11  30   0   1     1      2    0.29
   9(2)    1.70    82.76284   1.23716     11  30   0   1     1      2    0.30
  10(3)    1.70    82.27450   1.72550     11  30   0   1     1      2    0.64
  11(4)    1.70    82.77536   1.22464     11  30   0   1     1      2    0.29
  12(1)    1.60    82.77536   1.22464     11  30   0   1     1      2    0.29
  13(2)    1.60    82.76284   1.23716     11  30   0   1     1      2    0.30
  14(3)    1.60    82.27450   1.72550     11  30   0   1     1      2    0.64
  15(4)    1.60    82.77536   1.22464     11  30   0   1     1      2    0.29
  16(1)    1.50    82.77536   1.22464     11  30   0   1     0      2    0.29
  17(2)    1.50    82.77536   1.22464     11  30   0   1     0      2    0.29
 -----------------------------------------------------------------------------

 Structure accepted: RESONANCE keyword permits strongly delocalized structure

 --------------------------------------------------------
   Core                     21.99301 ( 99.968% of  22)
   Valence Lewis            60.78235 ( 98.036% of  62)
  ==================       ============================
   Total Lewis              82.77536 ( 98.542% of  84)
  -----------------------------------------------------
   Valence non-Lewis         1.11866 (  1.332% of  84)
   Rydberg non-Lewis         0.10598 (  0.126% of  84)
  ==================       ============================
   Total non-Lewis           1.22464 (  1.458% of  84)
 --------------------------------------------------------


       (Occupancy)   Bond orbital/ Coefficients/ Hybrids
 ---------------------------------------------------------------------------------
     1. (1.97963) BD ( 1) N   1 - C   2  
                ( 64.46%)   0.8029* N   1 s( 32.73%)p 2.05( 67.24%)d 0.00(  0.03%)
                                           -0.0002  0.5721  0.0016 -0.0009 -0.0002
                                            0.0428 -0.0236 -0.0065  0.7724 -0.0033
                                           -0.0015 -0.2706 -0.0145 -0.0039  0.0078
                                            0.0034 -0.0066 -0.0104 -0.0088
                ( 35.54%)   0.5961* C   2 s( 25.83%)p 2.87( 74.05%)d 0.00(  0.12%)
                                           -0.0002  0.5081 -0.0136 -0.0022 -0.0016
                                           -0.1738 -0.0391 -0.0041 -0.8163 -0.0472
                                            0.0059  0.2000 -0.0075 -0.0052  0.0062
                                           -0.0001 -0.0172 -0.0259 -0.0131
     2. (1.98240) BD ( 1) N   1 - C   5  
                ( 62.88%)   0.7930* N   1 s( 33.98%)p 1.94( 65.98%)d 0.00(  0.04%)
                                           -0.0001  0.5829 -0.0017  0.0012 -0.0010
                                            0.5730 -0.0076 -0.0069 -0.2898 -0.0181
                                           -0.0035  0.4970  0.0021 -0.0031 -0.0019
                                            0.0168 -0.0052  0.0069 -0.0021
                ( 37.12%)   0.6093* C   5 s( 29.77%)p 2.36( 70.13%)d 0.00(  0.10%)
                                           -0.0002  0.5454 -0.0162  0.0048 -0.0004
                                           -0.6469 -0.0291  0.0048  0.1803 -0.0168
                                           -0.0031 -0.4988 -0.0140  0.0057 -0.0131
                                            0.0243 -0.0113  0.0111  0.0014
     3. (1.98834) BD ( 1) N   1 - C   8  
                ( 65.88%)   0.8117* N   1 s( 33.22%)p 2.01( 66.77%)d 0.00(  0.02%)
                                           -0.0001  0.5763 -0.0009 -0.0007  0.0009
                                           -0.6242  0.0081  0.0023 -0.4733  0.0127
                                            0.0075 -0.2318  0.0003 -0.0012  0.0083
                                            0.0068 -0.0003  0.0000 -0.0061
                ( 34.12%)   0.5841* C   8 s( 20.67%)p 3.83( 79.19%)d 0.01(  0.14%)
                                            0.0001  0.4539 -0.0252 -0.0025 -0.0003
                                            0.6848  0.0320 -0.0043  0.5033  0.0288
                                           -0.0018  0.2602  0.0101 -0.0022  0.0286
                                            0.0147  0.0105  0.0083 -0.0143
     4. (1.97889) BD ( 1) C   2 - C   3  
                ( 50.03%)   0.7073* C   2 s( 36.94%)p 1.71( 63.01%)d 0.00(  0.05%)
                                            0.0000  0.6077 -0.0113  0.0022  0.0015
                                            0.6574  0.0059 -0.0094  0.3127  0.0377
                                            0.0040  0.3137 -0.0103 -0.0079  0.0043
                                            0.0168  0.0020  0.0127 -0.0026
                ( 49.97%)   0.7069* C   3 s( 36.85%)p 1.71( 63.11%)d 0.00(  0.05%)
                                            0.0000  0.6069 -0.0123  0.0019 -0.0005
                                           -0.6733 -0.0142  0.0077 -0.1825  0.0293
                                            0.0098 -0.3778 -0.0215  0.0011  0.0147
                                            0.0110  0.0056  0.0072 -0.0073
     5. (1.85469) BD ( 2) C   2 - C   3  
                ( 49.99%)   0.7070* C   2 s(  0.00%)p 1.00( 99.91%)d 0.00(  0.09%)
                                            0.0000 -0.0001 -0.0005  0.0001  0.0002
                                           -0.5241  0.0140 -0.0092  0.3059 -0.0077
                                            0.0050  0.7936 -0.0209  0.0135  0.0098
                                            0.0099  0.0019 -0.0116  0.0245
                ( 50.01%)   0.7072* C   3 s(  0.00%)p 1.00( 99.91%)d 0.00(  0.09%)
                                            0.0000 -0.0015 -0.0019 -0.0004  0.0000
                                           -0.5281  0.0140 -0.0078  0.3065 -0.0080
                                            0.0058  0.7908 -0.0194  0.0131  0.0043
                                           -0.0137 -0.0183  0.0174 -0.0082
     6. (1.98464) BD ( 1) C   2 - H   6  
                ( 64.25%)   0.8016* C   2 s( 37.20%)p 1.69( 62.77%)d 0.00(  0.03%)
                                            0.0003 -0.6098 -0.0125  0.0007  0.0006
                                            0.5106 -0.0175 -0.0035 -0.3694 -0.0016
                                            0.0007  0.4796 -0.0111 -0.0025  0.0076
                                           -0.0135  0.0078 -0.0044  0.0000
                ( 35.75%)   0.5979* H   6 s(100.00%)
                                           -1.0000 -0.0018
     7. (1.97857) BD ( 1) C   3 - N   4  
                ( 35.70%)   0.5975* C   3 s( 25.90%)p 2.86( 73.98%)d 0.00(  0.12%)
                                           -0.0002  0.5088 -0.0122 -0.0018  0.0000
                                            0.3552  0.0412  0.0017 -0.6181 -0.0161
                                            0.0056  0.4777  0.0371 -0.0020 -0.0139
                                            0.0117 -0.0250 -0.0154 -0.0042
                ( 64.30%)   0.8018* N   4 s( 32.08%)p 2.12( 67.88%)d 0.00(  0.03%)
                                           -0.0001  0.5664 -0.0025 -0.0011  0.0013
                                           -0.2318  0.0208  0.0042  0.6703  0.0145
                                            0.0062 -0.4184  0.0086  0.0021 -0.0056
                                            0.0110 -0.0123 -0.0033 -0.0021
     8. (1.98395) BD ( 1) C   3 - H   7  
                ( 64.27%)   0.8017* C   3 s( 37.23%)p 1.69( 62.74%)d 0.00(  0.03%)
                                           -0.0003  0.6100  0.0126 -0.0008  0.0003
                                            0.3724 -0.0180 -0.0039  0.6984 -0.0101
                                           -0.0027 -0.0207 -0.0071 -0.0009  0.0135
                                            0.0018 -0.0001 -0.0067 -0.0091
                ( 35.73%)   0.5977* H   7 s(100.00%)
                                            1.0000  0.0018
     9. (1.98203) BD ( 1) N   4 - C   5  
                ( 62.82%)   0.7926* N   4 s( 34.07%)p 1.93( 65.89%)d 0.00(  0.04%)
                                           -0.0001  0.5837 -0.0058 -0.0007 -0.0027
                                           -0.4516  0.0116  0.0024 -0.6731 -0.0113
                                            0.0008 -0.0375  0.0103  0.0041  0.0145
                                            0.0074  0.0018 -0.0015 -0.0095
                ( 37.18%)   0.6097* C   5 s( 29.92%)p 2.34( 69.98%)d 0.00(  0.10%)
                                           -0.0002  0.5468 -0.0134  0.0089  0.0010
                                            0.5390  0.0290 -0.0066  0.6268  0.0067
                                           -0.0052  0.1224  0.0200 -0.0003  0.0258
                                            0.0029  0.0027 -0.0098 -0.0160
    10. (1.89481) BD ( 2) N   4 - C   5  
                ( 70.69%)   0.8408* N   4 s(  0.01%)p99.99( 99.93%)d 4.18(  0.05%)
                                            0.0000  0.0101 -0.0003  0.0040  0.0031
                                           -0.5162 -0.0037 -0.0009  0.3107  0.0050
                                           -0.0012  0.7976  0.0101  0.0049  0.0008
                                           -0.0103 -0.0120  0.0130 -0.0107
[...]
 5,0.00000803,-0.00186043,-0.00001812,0.00031275,-0.02591962,-0.0040209
 5,0.00315770,-0.00089736,-0.00028454,0.00108538,0.00038963,-0.00046831
 ,0.00066965,0.01834769,0.00293473,-0.08179461,0.03155962,0.00472219,-0
 .00253734,-0.00217449,-0.00045966,0.00027027,0.01414154,-0.00099162,0.
 59182231,-0.00007764,0.00009633,0.00025204,-0.00003441,0.00000804,0.00
 008731,0.00002990,-0.00020679,-0.00002940,0.00004283,-0.00005895,0.000
 07333,0.00016243,0.00020838,-0.00031696,-0.00001295,-0.00001172,0.0000
 0505,-0.00000348,-0.00003396,-0.00001194,0.00001541,0.00003742,-0.0000
 8592,-0.00000208,-0.00000579,0.00001609,-0.00000543,-0.00000232,0.0000
 0827,-0.00001442,-0.00000848,0.00001685,-0.00074885,0.00120002,-0.0020
 2706,0.00007941,-0.00000615,0.00001791,-0.00075647,-0.00005817,0.00013
 321,-0.00598486,-0.00232621,0.00267607,0.00006126,-0.00027932,0.000095
 64,0.00006888,0.00004996,0.00026973,-0.01618568,0.01677598,-0.02391439
 ,0.00108768,0.00040090,0.00022905,0.00126810,-0.00026170,-0.00025729,-
 0.11796245,0.06875973,-0.09856228,0.12939865,0.00000107,0.00001420,-0.
 00003074,-0.00000312,-0.00002602,0.00000977,-0.00000605,-0.00000032,0.
 00000825,-0.00000319,-0.00003288,-0.00002389,-0.00001084,0.00003667,0.
 00002704,0.00000653,0.00000047,0.00000437,-0.00001964,0.00000231,0.000
 00062,0.00000007,-0.00000693,0.00002323,-0.00000274,0.00000353,-0.0000
 0532,0.00000416,-0.00000244,0.00000097,0.00000830,0.00000894,-0.000001
 13,-0.00032773,0.00063157,-0.00002415,0.00011988,-0.00000140,-0.000024
 27,-0.00013456,-0.00002026,-0.00000099,-0.00106390,0.00010236,0.000038
 70,0.00001848,-0.00014075,0.00022977,-0.00024424,0.00040447,-0.0001656
 7,-0.00373424,0.00230821,-0.00555778,0.00051728,-0.00009295,-0.0000141
 5,0.00030828,0.00035813,-0.00044316,0.06949083,-0.11583152,0.09707100,
 -0.07438374,0.12086730,-0.00001618,0.00000621,0.00004195,-0.00000097,-
 0.00000246,0.00001390,-0.00000801,-0.00004739,-0.00000967,-0.00018513,
 -0.00000449,0.00011364,0.00002119,0.00005083,-0.00006923,0.00000320,-0
 .00000497,0.00000047,0.00000715,-0.00000536,-0.00000027,0.00001703,0.0
 0000541,-0.00002019,-0.00000148,-0.00000025,0.00000080,0.00000064,0.00
 000005,0.00000056,0.00000227,0.00000175,-0.00000007,0.00040658,0.00005
 892,0.00044421,-0.00001717,-0.00000366,0.00001388,0.00011624,0.0000083
 9,-0.00001639,0.00101630,-0.00005492,0.00039633,0.00023855,0.00002285,
 0.00037874,0.00007226,0.00003911,-0.00013644,0.00403591,-0.00418475,0.
 00419908,-0.00038366,-0.00028522,0.00052850,-0.00054473,-0.00015437,-0
 .00000037,-0.09992820,0.09706667,-0.18909341,0.10755648,-0.10583897,0.
 20057133,0.00000248,0.00002168,-0.00003639,0.00002697,0.00003887,0.000
 02396,0.00000657,0.00003189,0.00003232,0.00005428,-0.00004536,0.000011
 20,0.00003504,-0.00018054,-0.00002994,-0.00000823,0.00000552,0.0000000
 4,-0.00005319,0.00001763,-0.00001591,-0.00000816,-0.00000061,0.0000145
 2,0.00000711,-0.00000302,-0.00000405,-0.00000181,0.00000371,-0.0000009
 6,-0.00000356,-0.00000446,-0.00000891,0.00003058,0.00022871,0.00019211
 ,0.00025502,0.00015002,-0.00002090,0.00001186,0.00011418,0.00000766,0.
 00152929,-0.00162941,0.00050345,-0.00003024,0.00008170,-0.00007825,-0.
 00045609,0.00088185,-0.00038011,-0.00895979,-0.03364595,-0.00274826,0.
 00153055,0.00034418,0.00000580,-0.00684548,-0.00062747,0.00076975,-0.0
 6214295,-0.05846356,-0.00388168,0.00418280,0.01680747,0.00266292,0.069
 06866,-0.00001534,0.00002224,0.00003758,0.00001103,0.00002233,0.000019
 30,0.00000754,-0.00004379,0.00000546,-0.00006121,-0.00002229,0.0000393
 0,0.00004404,-0.00003387,-0.00008338,-0.00000945,-0.00000408,-0.000000
 62,-0.00002244,-0.00000614,-0.00000568,0.00000824,0.00000505,-0.000016
 37,0.00000345,-0.00000341,0.00000231,-0.00000369,0.00000274,-0.0000007
 4,-0.00000338,-0.00000781,-0.00000371,0.00006594,0.00042121,-0.0000719
 0,0.00021040,-0.00006501,0.00002388,-0.00009998,-0.00000217,0.00001306
 ,0.00052745,0.00080721,-0.00000907,-0.00010192,-0.00010696,0.00005070,
 -0.00051632,0.00021432,-0.00048231,-0.00064107,-0.00297477,0.00019874,
 -0.00037928,0.00042257,0.00031096,-0.00040665,0.00146148,0.00050037,-0
 .05901053,-0.30706379,-0.01810669,-0.00348907,-0.01449620,-0.00218992,
 0.06554681,0.33101325,0.00001833,-0.00001920,-0.00006653,0.00000166,-0
 .00001287,-0.00003549,-0.00001813,0.00000777,0.00002308,0.00000302,0.0
 0000288,-0.00007243,-0.00000088,0.00002265,0.00007032,0.00001546,-0.00
 000097,0.00000229,-0.00000097,0.00000183,0.00002286,-0.00000142,-0.000
 00672,0.00001462,-0.00000248,0.00000235,-0.00000444,0.00000580,-0.0000
 0168,-0.00000056,0.00000764,0.00000892,-0.00000225,-0.00007465,0.00015
 528,0.00003306,0.00001970,0.00003272,-0.00004129,-0.00001226,-0.000012
 42,-0.00000938,-0.00029533,-0.00071457,-0.00000710,0.00005801,-0.00019
 424,-0.00004157,-0.00034528,0.00004328,0.00019436,0.00126633,0.0049280
 2,-0.00064154,-0.00029058,0.00052757,0.00000012,0.00112939,0.00024662,
 0.00070275,-0.00416184,-0.01840908,-0.05091260,0.00663254,0.02350229,0
 .00221800,0.00365855,0.01957534,0.04915087,0.00001393,-0.00006083,-0.0
 0006002,0.00005142,0.00003186,-0.00002122,0.00001637,-0.00008184,-0.00
 001702,-0.00012919,0.00002135,-0.00023481,0.00016040,-0.00003039,-0.00
 012442,-0.00000055,-0.00000587,-0.00000540,-0.00001077,0.00000459,0.00
 001672,0.00001254,0.00000461,-0.00003776,-0.00000048,-0.00000134,0.000
 00460,-0.00000212,0.00000262,-0.00000177,0.00000326,0.00000025,-0.0000
 0910,0.00004239,-0.00023404,0.00020060,0.00002329,-0.00000067,0.000020
 95,0.00002299,0.00000208,-0.00002143,0.00149844,0.00002471,0.00167201,
 -0.00039061,0.00011529,-0.00091757,-0.00003159,0.00003015,-0.00009226,
 -0.01136357,0.01206432,0.03022653,-0.00669836,-0.00106208,0.00055167,0
 .00145770,-0.00006832,-0.00026713,-0.07212032,0.02705275,0.07120548,0.
 00543447,-0.00733950,-0.01505791,0.00175748,-0.00168199,-0.00762221,0.
 08025588,-0.00000925,0.00001990,0.00004998,0.00000280,-0.00000891,0.00
 004055,0.00001507,-0.00006265,-0.00002909,-0.00015141,-0.00000998,0.00
 008891,0.00001764,0.00005371,-0.00009137,-0.00000956,-0.00000104,0.000
 00006,-0.00001351,0.00000057,-0.00001672,0.00000625,0.00000526,-0.0000
 1251,-0.00000105,0.00000025,0.00000247,-0.00000332,-0.00000037,0.00000
 178,-0.00000103,-0.00000191,0.00000118,0.00012024,-0.00003387,0.000164
 99,-0.00004497,-0.00001824,0.00000509,0.00003174,-0.00000857,-0.000010
 62,0.00017715,-0.00009915,-0.00020226,0.00039716,0.00011929,-0.0000032
 4,0.00000015,-0.00008281,-0.00018140,-0.00193383,0.00153603,0.00586827
 ,-0.00151151,0.00086817,0.00038217,0.00043051,0.00027969,0.00058859,0.
 02757708,-0.08153938,-0.08318429,-0.00638830,0.00591297,0.01548705,0.0
 1024769,-0.00958799,-0.02967721,-0.02893294,0.08262868,0.00003253,0.00
 001771,-0.00001240,-0.00000062,-0.00000826,0.00002348,-0.00000622,0.00
 001620,-0.00001830,-0.00017358,0.00008644,0.00002896,-0.00009198,-0.00
 001113,0.00000024,-0.00000693,0.00000696,-0.00000027,-0.00000922,0.000
 01148,-0.00000750,-0.00001852,-0.00000413,0.00002190,0.00000107,0.0000
 0079,0.,-0.00000262,-0.00000061,0.00000067,-0.00000605,-0.00000300,0.0
 0000270,0.00008877,0.00002329,0.00026661,0.00000508,0.00000272,-0.0000
 2572,0.00006852,-0.00001429,-0.00002239,-0.00057453,0.00024699,0.00105
 156,0.00032254,-0.00039244,0.00023247,0.00011978,0.00003835,-0.0000494
 3,0.00047056,-0.00020954,-0.00246977,0.00025732,0.00058200,0.00125852,
 0.00029050,0.00033463,0.00014114,0.07215964,-0.08279406,-0.26809736,0.
 00714840,-0.00879391,-0.01958267,-0.00065494,0.00018914,-0.00059472,-0
 .07942197,0.09071378,0.28786099,0.00373102,0.00791479,-0.00162127,0.00
 399692,0.00126848,0.00201680,0.00126926,0.00080264,0.00371304,0.002306
 53,-0.01192560,-0.00027105,-0.07167922,-0.00827674,0.00894974,0.001972
 16,0.00025407,0.00041542,0.00119873,-0.00046228,0.00013431,-0.00213504
 ,0.00044278,-0.00151891,-0.00010057,-0.00034901,-0.00022332,0.00023340
 ,-0.00009971,0.00015056,-0.00002274,0.00029264,0.00020479,-0.00150025,
 -0.00042588,-0.00091175,0.00011260,-0.00044345,0.00005113,-0.00006099,
 -0.00039940,-0.00015978,-0.00012702,0.00006157,0.00035698,-0.00008657,
 -0.00001738,-0.00002576,-0.00002623,0.00002271,-0.00008621,-0.00008555
 ,-0.00008190,-0.00005319,-0.00015205,0.00001750,0.00013095,-0.00010908
 ,-0.00017027,0.00000981,0.00006646,0.00002361,0.00004001,-0.00001116,0
 .00000170,-0.00000971,0.00001020,0.00002334,0.00001256,-0.00000712,-0.
 00002055,0.00000097,0.57045574,0.00138222,-0.01673632,-0.00490301,0.00
 036392,0.00034426,-0.00111965,0.00015714,0.00147892,0.00002468,-0.0037
 6093,-0.01333133,0.00779928,-0.00746079,-0.24623208,0.00571121,-0.0002
 0312,0.00006036,0.00023115,-0.00003781,0.00014983,-0.00008712,-0.00029
 697,-0.00051289,0.00086028,-0.00013425,0.00036872,-0.00013791,-0.00022
 739,-0.00031099,0.00058896,0.00026195,0.00025598,-0.00003858,0.0006753
 1,0.00028812,-0.00068997,-0.00009887,-0.00024725,0.00050482,0.00006482
 ,-0.00017252,-0.00012118,-0.00010209,-0.00000947,0.00014204,0.00002868
 ,0.00000431,0.00001503,-0.00002207,-0.00004508,-0.00002209,-0.00031861
 ,0.00036076,0.00020621,0.00013322,0.00005205,-0.00017832,-0.00000432,-
 0.00022588,-0.00007142,0.00010126,-0.00016356,-0.00006696,-0.00001263,
 0.00000014,-0.00000572,-0.00005689,-0.00002243,0.00000989,0.00001694,0
 .00000909,0.00001825,-0.00039709,0.51505156,-0.00199004,-0.02347988,0.
 00631379,0.00200725,-0.00329272,-0.00094849,0.00348328,-0.00243870,-0.
 00719747,0.00050671,0.03275846,0.00379436,0.00854108,0.00834664,-0.091
 16756,0.00035774,-0.00084774,0.00105517,0.00018462,0.00117719,0.000943
 16,-0.00159835,-0.00104833,0.00142453,0.00033263,-0.00002002,-0.000002
 19,0.00015762,0.00025020,-0.00009350,-0.00029234,0.00012880,-0.0001476
 5,-0.00152591,0.00030249,-0.00022254,0.00083393,0.00175126,-0.00116056
 ,0.00019672,0.00033464,0.00005237,0.00003171,0.00055798,0.00042792,-0.
 00008999,-0.00006394,0.00003517,0.00016698,0.00003315,-0.00005089,0.00
 023821,-0.00065907,-0.00028293,-0.00002113,0.00001492,0.00008263,0.000
 07063,0.00038547,-0.00000186,-0.00009282,0.00018975,0.00003728,0.00003
 027,-0.00001300,0.00000300,0.00007052,0.00001826,-0.00002756,0.0000027
 5,0.00000020,-0.00000082,-0.01373557,-0.00272790,0.59784700,-0.0005383
 5,0.00190838,0.00050819,-0.00063692,-0.00022308,0.00050286,0.00013739,
 -0.00056689,-0.00036354,0.00070152,0.00002794,-0.00028797,0.00089689,-
 0.00077115,0.00274025,-0.00002708,0.00005807,-0.00003059,0.00007152,-0
 .00001685,0.00000890,0.00014832,0.00021812,-0.00009486,0.00002286,-0.0
 0001302,0.00007120,-0.00003683,0.00005041,-0.00003548,-0.00004701,-0.0
 0012323,-0.00012988,-0.00026092,-0.00070665,-0.00040356,-0.00027611,-0
 .00003444,0.00056729,0.00008973,0.00029877,0.00003951,-0.00004456,0.00
 026961,0.00008693,0.00000174,-0.00003932,0.00004949,0.00013187,0.00001
 540,0.00002224,-0.00007662,-0.00013269,-0.00012732,0.00003709,0.000147
 76,0.00009038,-0.00000005,-0.00000122,-0.00009710,0.00003093,-0.000006
 58,0.00007947,0.00003062,-0.00000527,-0.00000043,-0.00001150,-0.000001
 89,-0.00000642,-0.00003009,-0.00000385,0.00000963,-0.15347463,-0.06144
 884,-0.12177815,0.16195063,-0.00135815,-0.00194972,0.00176448,0.000433
 56,-0.00171532,0.00090247,0.00085591,-0.00189402,-0.00131890,0.0011779
 8,0.00233212,-0.00026150,-0.02013924,-0.01590570,-0.02574443,0.0003603
 4,-0.00018603,0.00034136,0.00020939,0.00003924,0.00010226,-0.00064640,
 0.00000741,0.00047872,0.00007852,-0.00003112,-0.00011663,0.00002890,0.
 00007336,-0.00009891,0.00001885,-0.00001188,-0.00018547,-0.00031296,-0
 .00042541,-0.00027435,-0.00065724,0.00017761,0.00067522,-0.00003482,0.
 00002431,0.00006616,-0.00004199,0.00031114,0.00022122,-0.00006554,-0.0
 0000302,-0.00001735,0.00013121,0.00002534,-0.00003406,0.00005597,0.000
 01307,-0.00004467,0.00000044,-0.00009449,-0.00000002,-0.00003470,0.000
 04903,0.00007254,-0.00002086,0.00001140,0.00000104,-0.00000198,-0.0000
 0328,0.00000394,0.00001701,0.00000819,-0.00000742,0.00001014,0.0000044
 1,-0.00001099,-0.06151298,-0.08005541,-0.06686643,0.06645936,0.0902012
 4,-0.00068552,-0.00037961,0.00033002,0.00013255,0.00073946,-0.00067084
 ,-0.00060285,0.00061234,0.00048258,0.00063831,0.00000819,-0.00096733,0
 .00485628,-0.00078404,0.00322418,-0.00002008,-0.00001746,-0.00000465,-
 0.00007224,-0.00000284,-0.00002029,0.00022792,-0.00019994,-0.00031724,
 -0.00018213,-0.00012283,-0.00017427,0.00003429,-0.00010038,0.00010251,
 0.00006041,0.00015209,0.00030639,-0.00035441,0.00066186,0.00051826,0.0
 0067060,0.00042078,-0.00040590,0.00006145,0.00018125,-0.00008055,0.000
 19831,-0.00039392,-0.00011360,0.00002706,0.00000034,-0.00000580,-0.000
 13543,-0.00000957,0.00005100,0.00000332,0.00008027,0.00005282,-0.00004
 335,-0.00001428,-0.00003396,-0.00002890,-0.00004556,0.00001066,0.00000
 724,-0.00000154,-0.00002577,-0.00000668,0.00000297,-0.00000082,0.00000
 009,-0.00000267,0.00000551,0.00000999,-0.00000004,-0.00000032,-0.12144
 265,-0.06663917,-0.18100180,0.13145047,0.07356676,0.19320762,0.0003260
 9,0.00008054,0.00043476,-0.00027704,-0.00003522,-0.00004658,0.00047179
 ,0.00004029,0.00015119,0.00068155,0.00027629,-0.00013350,-0.00324049,-
 0.00020821,-0.00084207,-0.00007342,0.00000472,-0.00004953,0.00008813,0
 .00000862,0.00003600,0.00054979,0.00055162,0.00034634,-0.00035001,0.00
 067683,0.00053279,-0.00023517,0.00009991,-0.00015582,0.00005630,-0.000
 31050,-0.00045599,0.00007427,0.00015807,0.00001315,-0.00026109,-0.0000
 7863,0.00001376,-0.00000881,-0.00004239,-0.00001466,-0.00001971,0.0000
 5733,-0.00008930,0.00000254,0.00000281,0.00000299,0.00003012,-0.000031
 72,0.00002112,-0.00018164,0.00024724,0.00009580,0.00007213,0.00003840,
 0.00001610,0.00003645,-0.00018658,-0.00006035,0.00006635,-0.00012293,0
 .00003623,-0.00001230,0.00000861,-0.00000270,-0.00004969,-0.00001324,0
 .00001197,-0.00002296,-0.00000005,0.00000393,-0.07800055,-0.02798860,0
 .08737577,0.00804739,0.00754763,-0.01903975,0.08018598,0.00018394,0.00
 235296,-0.00036544,-0.00026884,-0.00073022,0.00067480,-0.00047965,-0.0
 0032000,0.00131282,0.00038524,-0.00648181,-0.00171025,-0.01265257,-0.0
 0880612,0.03454346,0.00004511,0.00009313,-0.00008135,0.00008505,-0.000
 40694,-0.00028097,-0.00005854,-0.00089289,0.00002151,0.00064438,-0.000
 37964,-0.00059785,0.00005702,0.00024223,-0.00016926,-0.00010456,-0.000
 43701,-0.00097027,0.00031199,-0.00073982,-0.00130351,0.00010550,0.0003
 0909,0.00000729,-0.00000762,0.00015841,0.00011812,0.00001716,0.0001608
 7,0.00013088,-0.00006237,-0.00000761,0.00000649,0.00005692,0.00003008,
 -0.00001585,0.00004423,-0.00019700,-0.00005742,0.00001064,-0.00001201,
 0.00003001,-0.00003717,0.00011827,0.00002689,-0.00002516,0.00008506,0.
 00000160,-0.00000236,-0.00000203,0.00000283,0.00002962,0.00000900,-0.0
 0000469,0.00000119,-0.00000359,-0.00000522,-0.02615390,-0.07190002,0.0
 6937831,0.00577909,0.00353809,-0.01067387,0.02920669,0.08004350,0.0003
 8392,-0.00004959,-0.00059382,-0.00005692,0.00003156,-0.00013403,0.0000
 9808,-0.00014229,0.00023407,-0.00000216,-0.00142594,0.00052374,-0.0017
 3897,0.00012793,0.00109252,-0.00004790,-0.00000174,0.00004256,0.000042
 75,-0.00006916,-0.00000487,0.00029743,-0.00155764,-0.00031114,0.000052
 35,-0.00032902,-0.00021027,-0.00016628,-0.00023447,0.00012134,0.000088
 20,-0.00081984,-0.00063160,-0.00006422,-0.00042183,-0.00018632,-0.0000
 2041,0.00029230,0.00006003,0.00002582,0.00008922,0.00003241,-0.0000168
 5,0.00016614,0.00002740,-0.00000500,-0.00000734,0.00000842,0.00006414,
 0.00000250,-0.00000224,0.00001865,-0.00004098,-0.00003117,0.00001726,0
 .00000704,0.00000423,-0.00000547,0.00002896,0.00000093,-0.00001282,0.0
 0000582,0.00001274,0.00001097,-0.00000089,0.00000269,0.00000370,0.0000
 0150,-0.00000309,-0.00000279,0.00000158,-0.00000166,0.08747456,0.07475
 527,-0.27848008,0.00859904,0.00635974,-0.01817074,-0.09499823,-0.07690
 712,0.29905709,-0.00035506,-0.00116938,-0.00080843,-0.00036540,-0.0004
 9655,-0.00014028,-0.00003870,-0.00002519,-0.00036385,0.00001817,-0.000
 25908,0.00077664,0.00690811,0.00020410,-0.00119791,-0.00008871,-0.0000
 3853,-0.00000424,-0.00001164,0.00000732,-0.00000107,0.00002547,-0.0000
 3944,0.00040616,0.00006094,-0.00000670,-0.00007422,0.00002062,0.000022
 82,-0.00003230,-0.00010487,0.00009730,-0.00001416,0.00017667,0.0006201
 6,0.00019031,0.00000315,-0.00031397,0.00021736,-0.00003622,-0.00005720
 ,-0.00000868,0.00048445,-0.00017234,0.00013092,-0.00004975,0.00002629,
 -0.00004255,-0.00018244,0.00003776,-0.00004067,-0.00064010,-0.00032792
 ,0.00026076,0.00020642,-0.00021135,-0.00018603,-0.00070944,-0.00000171
 ,0.00070971,-0.00003911,0.00011161,-0.00010276,-0.00005027,-0.00001389
 ,-0.00000043,0.00006183,0.00000922,-0.00000850,0.00005717,0.00000166,-
 0.00001205,-0.27777423,0.09938579,0.03653588,-0.01683784,0.00744164,0.
 00423569,-0.00795599,0.00288896,-0.00003886,0.29721677,-0.00014295,-0.
 00191112,0.00229915,-0.00100023,-0.00172364,0.00041107,0.00011905,-0.0
 0185843,-0.00167677,-0.00052211,0.00251346,-0.00092850,0.03102661,-0.0
 1785482,-0.00708677,-0.00050502,-0.00015866,0.00001794,-0.00019678,0.0
 0005441,-0.00006148,0.00015342,-0.00002360,0.00080668,0.00011261,-0.00
 001385,-0.00015050,0.00004851,0.00007690,-0.00009394,0.00001117,-0.000
 02861,-0.00014113,0.00034098,-0.00030530,0.00010582,0.00008165,0.00010
 771,0.00059847,-0.00000725,0.00022832,0.00008415,0.00015882,-0.0001625
 0,0.00016843,-0.00007900,0.00004858,-0.00007904,0.00001994,0.00007199,
 -0.00005150,0.00015065,0.00012885,0.00034227,-0.00027913,-0.00061673,-
 0.00019875,-0.00030966,0.00029197,0.00019224,-0.00015133,0.00007237,-0
 .00025625,0.00000089,0.00000572,0.00002843,0.00008874,0.00003113,-0.00
 000635,0.00011697,0.00002046,-0.00004114,0.09961029,-0.08845885,-0.014
 16999,-0.01113795,0.00545944,0.00296141,-0.00998753,0.00417603,0.00013
 827,-0.10772136,0.09982877,0.00010417,-0.00157448,0.00005497,0.0001604
 6,0.00079755,-0.00096209,-0.00006147,0.00075173,0.00085428,0.00041672,
 -0.00001785,-0.00020258,-0.00216945,-0.00011957,-0.00162756,-0.0000088
 6,-0.00005487,0.00001191,0.00007118,0.00000760,0.00005027,0.00002755,-
 0.00026141,-0.00023624,-0.00024662,0.00020415,0.00017972,-0.00009866,-
 0.00010429,0.00005137,0.00025555,-0.00012604,-0.00004334,-0.00002623,0
 .00055499,0.00056247,-0.00051154,0.00017648,-0.00089316,-0.00010203,-0
 .00032291,-0.00005549,-0.00000323,-0.00005955,-0.00026921,0.00001875,0
 .00002869,-0.00004144,-0.00002760,-0.00007102,0.00003855,0.00009624,0.
 00071954,0.00017629,0.00010094,-0.00014888,-0.00008415,0.00073537,-0.0
 0019369,-0.00021347,0.00007172,-0.00024737,-0.00005994,-0.00004729,0.0
 0001905,0.00000246,-0.00009630,-0.00001285,0.00002271,0.00000350,0.000
 01206,-0.00000591,0.03639754,-0.01405807,-0.05123048,-0.02147055,0.010
 42520,0.00370233,0.02679658,-0.01311195,-0.00245912,-0.04038644,0.0167
 8777,0.05267685||0.00000372,-0.00000369,-0.00000691,0.00000192,0.00000
 454,0.00000478,-0.00000419,-0.00000233,-0.00000104,0.00000735,0.000000
 81,0.00000001,-0.00000596,0.00000620,0.00001240,0.00000080,-0.00000250
 ,0.00000605,0.00000562,0.00000105,0.00000324,-0.00000125,-0.00000399,0
 .00000733,0.00000041,-0.00000145,-0.00000068,0.00000059,-0.00000285,0.
 00000091,0.00000067,-0.00000298,-0.00000126,-0.00000522,0.00000137,-0.
 00000282,-0.00000134,0.00000350,-0.00000190,0.00000187,0.00000499,-0.0
 0000062,0.00000336,-0.00000099,0.00000078,-0.00000025,0.00000250,-0.00
 000091,-0.00000110,0.00000238,0.00000164,-0.00000271,-0.00000008,-0.00
 000197,-0.00000070,-0.00000094,-0.00000030,-0.00000071,0.00000029,-0.0
 0000252,0.00000116,-0.00000020,-0.00000116,-0.00000042,-0.00000214,-0.
 00000220,-0.00000009,-0.00000150,0.00000020,-0.00000112,-0.00000016,-0
 .00000142,0.00000548,-0.00000511,-0.00000578,-0.00000361,0.00000218,-0
 .00000155,-0.00000301,-0.00000058,-0.00000196,-0.00000126,0.00000166,-
 0.00000233|||@


 I LOVE MANKIND - IT'S PEOPLE I CAN'T STAND.
     -- LINUS OF PEANUTS
 Job cpu time:       0 days 19 hours 16 minutes  2.0 seconds.
 File lengths (MBytes):  RWF=    175 Int=      0 D2E=      0 Chk=      6 Scr=      1
 Normal termination of Gaussian 09 at Tue Aug 05 18:12:49 2025.
