 Entering Link 1 = C:\G09W\l1.exe PID=     54660.
  
 Copyright (c) 1988,1990,1992,1993,1995,1998,2003,2009,2015,
            Gaussian, Inc.  All Rights Reserved.
  
 This is part of the Gaussian(R) 09 program.  It is based on
 the Gaussian(R) 03 system (copyright 2003, Gaussian, Inc.),
 the Gaussian(R) 98 system (copyright 1998, Gaussian, Inc.),
 the Gaussian(R) 94 system (copyright 1995, Gaussian, Inc.),
 the Gaussian 92(TM) system (copyright 1992, Gaussian, Inc.),
 the Gaussian 90(TM) system (copyright 1990, Gaussian, Inc.),
 the Gaussian 88(TM) system (copyright 1988, Gaussian, Inc.),
 the Gaussian 86(TM) system (copyright 1986, Carnegie Mellon
 University), and the Gaussian 82(TM) system (copyright 1983,
 Carnegie Mellon University). Gaussian is a federally registered
 trademark of Gaussian, Inc.
  
 This software contains proprietary and confidential information,
 including trade secrets, belonging to Gaussian, Inc.
  
 This software is provided under written license and may be
 used, copied, transmitted, or stored only in accord with that
 written license.
  
 The following legend is applicable only to US Government
 contracts under FAR:
  
                    RESTRICTED RIGHTS LEGEND
  
 Use, reproduction and disclosure by the US Government is
 subject to restrictions as set forth in subparagraphs (a)
 and (c) of the Commercial Computer Software - Restricted
 Rights clause in FAR 52.227-19.
  
 Gaussian, Inc.
 340 Quinnipiac St., Bldg. 40, Wallingford CT 06492
  
  
 ---------------------------------------------------------------
 Warning -- This program may not be used in any manner that
 competes with the business of Gaussian, Inc. or will provide
 assistance to any competitor of Gaussian, Inc.  The licensee
 of this program is prohibited from giving any competitor of
 Gaussian, Inc. access to this program.  By using this program,
 the user acknowledges that Gaussian, Inc. is engaged in the
 business of creating and licensing software in the field of
 computational chemistry and represents and warrants to the
 licensee that it is not a competitor of Gaussian, Inc. and that
 it will not use this program in any manner prohibited above.
 ---------------------------------------------------------------
  

 Cite this work as:
 Gaussian 09, Revision E.01,
 M. J. Frisch, G. W. Trucks, H. B. Schlegel, G. E. Scuseria, 
 M. A. Robb, J. R. Cheeseman, G. Scalmani, V. Barone, B. Mennucci, 
 G. A. Petersson, H. Nakatsuji, M. Caricato, X. Li, H. P. Hratchian, 
 A. F. Izmaylov, J. Bloino, G. Zheng, J. L. Sonnenberg, M. Hada, 
 M. Ehara, K. Toyota, R. Fukuda, J. Hasegawa, M. Ishida, T. Nakajima, 
 Y. Honda, O. Kitao, H. Nakai, T. Vreven, J. A. Montgomery, Jr., 
 J. E. Peralta, F. Ogliaro, M. Bearpark, J. J. Heyd, E. Brothers, 
 K. N. Kudin, V. N. Staroverov, T. Keith, R. Kobayashi, J. Normand, 
 K. Raghavachari, A. Rendell, J. C. Burant, S. S. Iyengar, J. Tomasi, 
 M. Cossi, N. Rega, J. M. Millam, M. Klene, J. E. Knox, J. B. Cross, 
 V. Bakken, C. Adamo, J. Jaramillo, R. Gomperts, R. E. Stratmann, 
 O. Yazyev, A. J. Austin, R. Cammi, C. Pomelli, J. W. Ochterski, 
 R. L. Martin, K. Morokuma, V. G. Zakrzewski, G. A. Voth, 
 P. Salvador, J. J. Dannenberg, S. Dapprich, A. D. Daniels, 
 O. Farkas, J. B. Foresman, J. V. Ortiz, J. Cioslowski, 
 and D. J. Fox, Gaussian, Inc., Wallingford CT, 2013.
 
 ******************************************
 Gaussian 09:  EM64W-G09RevE.01 30-Nov-2015
                04-Aug-2025 
 ******************************************
 %chk=D:\SQZ\2025.07.23\3-cation.chk
 ----------------------------------
 # opt freq m062x 6-31+G(d) pop=nbo
 ----------------------------------
 1/14=-1,18=20,19=15,26=3,38=1/1,3;
 2/9=110,12=2,17=6,18=5,40=1/2;
 3/5=1,6=6,7=11,11=2,16=1,25=1,30=1,71=1,74=-55/1,2,3;
 4//1;
 5/5=2,38=5/2;
 6/7=2,8=2,9=2,10=2,28=1,40=1/1,7;
 7//1,2,3,16;
 1/14=-1,18=20,19=15,26=3/3(2);
 2/9=110/2;
 99//99;
 2/9=110/2;
 3/5=1,6=6,7=11,11=2,16=1,25=1,30=1,71=1,74=-55/1,2,3;
 4/5=5,16=3,69=1/1;
 5/5=2,38=5/2;
 7//1,2,3,16;
 1/14=-1,18=20,19=15,26=3/3(-5);
 2/9=110/2;
 6/7=2,8=2,9=2,10=2,19=2,28=1,40=1/1,7;
 99/9=1/99;
 --------
 3-cation
 --------
 Symbolic Z-matrix:
 Charge =  1 Multiplicity = 1
 C                     0.10928   0.25248   0.55763 
 N                    -0.15439  -0.65961  -0.37729 
 C                    -0.61741  -1.7995    0.24176 
 C                    -0.62636  -1.55361   1.57819 
 N                    -0.1714   -0.26468   1.75372 
 H                     0.48557   1.24621   0.3678 
 H                    -0.8962   -2.67932  -0.3168 
 H                    -0.92093  -2.17327   2.41074 
 C                    -0.04448   0.42525   3.03801 
 H                     0.57783  -0.17204   3.70564 
 H                     0.427     1.39421   2.87551 
 H                    -1.03428   0.56832   3.4744 
 C                     0.08137  -0.49361  -1.83016 
 H                     1.08998  -0.85504  -2.04779 
 H                    -0.63682  -1.14959  -2.32968 
 C                    -0.09748   0.93279  -2.25749 
 H                    -1.10513   1.337    -2.18133 
 C                     0.89693   1.67178  -2.74159 
 H                     0.72983   2.69019  -3.07691 
 H                     1.90708   1.28205  -2.84435 
 

 GradGradGradGradGradGradGradGradGradGradGradGradGradGradGradGradGradGrad
 Berny optimization.
 Initialization pass.
                           ----------------------------
                           !    Initial Parameters    !
                           ! (Angstroms and Degrees)  !
 --------------------------                            --------------------------
 ! Name  Definition              Value          Derivative Info.                !
 --------------------------------------------------------------------------------
 ! R1    R(1,2)                  1.3325         estimate D2E/DX2                !
 ! R2    R(1,5)                  1.333          estimate D2E/DX2                !
 ! R3    R(1,6)                  1.0794         estimate D2E/DX2                !
 ! R4    R(2,3)                  1.3773         estimate D2E/DX2                !
 ! R5    R(2,13)                 1.4812         estimate D2E/DX2                !
 ! R6    R(3,4)                  1.3589         estimate D2E/DX2                !
 ! R7    R(3,7)                  1.0788         estimate D2E/DX2                !
 ! R8    R(4,5)                  1.3781         estimate D2E/DX2                !
 ! R9    R(4,8)                  1.0788         estimate D2E/DX2                !
 ! R10   R(5,9)                  1.4634         estimate D2E/DX2                !
 ! R11   R(9,10)                 1.0908         estimate D2E/DX2                !
 ! R12   R(9,11)                 1.0898         estimate D2E/DX2                !
 ! R13   R(9,12)                 1.0911         estimate D2E/DX2                !
 ! R14   R(13,14)                1.0933         estimate D2E/DX2                !
 ! R15   R(13,15)                1.0934         estimate D2E/DX2                !
 ! R16   R(13,16)                1.4997         estimate D2E/DX2                !
 ! R17   R(16,17)                1.0884         estimate D2E/DX2                !
 ! R18   R(16,18)                1.3302         estimate D2E/DX2                !
 ! R19   R(18,19)                1.0851         estimate D2E/DX2                !
 ! R20   R(18,20)                1.0876         estimate D2E/DX2                !
 ! A1    A(2,1,5)              108.805          estimate D2E/DX2                !
 ! A2    A(2,1,6)              125.1521         estimate D2E/DX2                !
 ! A3    A(5,1,6)              126.0427         estimate D2E/DX2                !
 ! A4    A(1,2,3)              108.5217         estimate D2E/DX2                !
 ! A5    A(1,2,13)             125.4513         estimate D2E/DX2                !
 ! A6    A(3,2,13)             125.9538         estimate D2E/DX2                !
 ! A7    A(2,3,4)              107.1277         estimate D2E/DX2                !
 ! A8    A(2,3,7)              121.9471         estimate D2E/DX2                !
 ! A9    A(4,3,7)              130.925          estimate D2E/DX2                !
 ! A10   A(3,4,5)              106.9976         estimate D2E/DX2                !
 ! A11   A(3,4,8)              131.0583         estimate D2E/DX2                !
 ! A12   A(5,4,8)              121.9417         estimate D2E/DX2                !
 ! A13   A(1,5,4)              108.5475         estimate D2E/DX2                !
 ! A14   A(1,5,9)              125.895          estimate D2E/DX2                !
 ! A15   A(4,5,9)              125.5474         estimate D2E/DX2                !
 ! A16   A(5,9,10)             109.1762         estimate D2E/DX2                !
 ! A17   A(5,9,11)             109.0171         estimate D2E/DX2                !
 ! A18   A(5,9,12)             109.5196         estimate D2E/DX2                !
 ! A19   A(10,9,11)            109.3497         estimate D2E/DX2                !
 ! A20   A(10,9,12)            110.1543         estimate D2E/DX2                !
 ! A21   A(11,9,12)            109.6036         estimate D2E/DX2                !
 ! A22   A(2,13,14)            107.761          estimate D2E/DX2                !
 ! A23   A(2,13,15)            106.0407         estimate D2E/DX2                !
 ! A24   A(2,13,16)            111.5365         estimate D2E/DX2                !
 ! A25   A(14,13,15)           108.4619         estimate D2E/DX2                !
 ! A26   A(14,13,16)           111.5746         estimate D2E/DX2                !
 ! A27   A(15,13,16)           111.2285         estimate D2E/DX2                !
 ! A28   A(13,16,17)           116.3403         estimate D2E/DX2                !
 ! A29   A(13,16,18)           122.8844         estimate D2E/DX2                !
 ! A30   A(17,16,18)           120.7491         estimate D2E/DX2                !
 ! A31   A(16,18,19)           121.2481         estimate D2E/DX2                !
 ! A32   A(16,18,20)           121.9829         estimate D2E/DX2                !
 ! A33   A(19,18,20)           116.7522         estimate D2E/DX2                !
 ! D1    D(5,1,2,3)             -0.0966         estimate D2E/DX2                !
 ! D2    D(5,1,2,13)          -177.1336         estimate D2E/DX2                !
 ! D3    D(6,1,2,3)           -179.9251         estimate D2E/DX2                !
 ! D4    D(6,1,2,13)             3.0379         estimate D2E/DX2                !
 ! D5    D(2,1,5,4)              0.194          estimate D2E/DX2                !
 ! D6    D(2,1,5,9)           -178.7016         estimate D2E/DX2                !
 ! D7    D(6,1,5,4)           -179.9795         estimate D2E/DX2                !
 ! D8    D(6,1,5,9)              1.1249         estimate D2E/DX2                !
 ! D9    D(1,2,3,4)             -0.0391         estimate D2E/DX2                !
 ! D10   D(1,2,3,7)           -179.93           estimate D2E/DX2                !
 ! D11   D(13,2,3,4)           176.9792         estimate D2E/DX2                !
 ! D12   D(13,2,3,7)            -2.9118         estimate D2E/DX2                !
 ! D13   D(1,2,13,14)           90.4777         estimate D2E/DX2                !
 ! D14   D(1,2,13,15)         -153.5404         estimate D2E/DX2                !
 ! D15   D(1,2,13,16)          -32.3085         estimate D2E/DX2                !
 ! D16   D(3,2,13,14)          -86.051          estimate D2E/DX2                !
 ! D17   D(3,2,13,15)           29.9309         estimate D2E/DX2                !
 ! D18   D(3,2,13,16)          151.1628         estimate D2E/DX2                !
 ! D19   D(2,3,4,5)              0.1539         estimate D2E/DX2                !
 ! D20   D(2,3,4,8)            179.594          estimate D2E/DX2                !
 ! D21   D(7,3,4,5)           -179.9685         estimate D2E/DX2                !
 ! D22   D(7,3,4,8)             -0.5285         estimate D2E/DX2                !
 ! D23   D(3,4,5,1)             -0.2158         estimate D2E/DX2                !
 ! D24   D(3,4,5,9)            178.6846         estimate D2E/DX2                !
 ! D25   D(8,4,5,1)           -179.7183         estimate D2E/DX2                !
 ! D26   D(8,4,5,9)             -0.8179         estimate D2E/DX2                !
 ! D27   D(1,5,9,10)          -125.9264         estimate D2E/DX2                !
 ! D28   D(1,5,9,11)            -6.5259         estimate D2E/DX2                !
 ! D29   D(1,5,9,12)           113.3884         estimate D2E/DX2                !
 ! D30   D(4,5,9,10)            55.3605         estimate D2E/DX2                !
 ! D31   D(4,5,9,11)           174.761          estimate D2E/DX2                !
 ! D32   D(4,5,9,12)           -65.3247         estimate D2E/DX2                !
 ! D33   D(2,13,16,17)         -66.1351         estimate D2E/DX2                !
 ! D34   D(2,13,16,18)         115.7141         estimate D2E/DX2                !
 ! D35   D(14,13,16,17)        173.2878         estimate D2E/DX2                !
 ! D36   D(14,13,16,18)         -4.863          estimate D2E/DX2                !
 ! D37   D(15,13,16,17)         52.0281         estimate D2E/DX2                !
 ! D38   D(15,13,16,18)       -126.1227         estimate D2E/DX2                !
 ! D39   D(13,16,18,19)        177.7274         estimate D2E/DX2                !
 ! D40   D(13,16,18,20)         -0.7354         estimate D2E/DX2                !
 ! D41   D(17,16,18,19)         -0.3443         estimate D2E/DX2                !
 ! D42   D(17,16,18,20)       -178.807          estimate D2E/DX2                !
 --------------------------------------------------------------------------------
 Trust Radius=3.00D-01 FncErr=1.00D-07 GrdErr=1.00D-06
 Number of steps in this run=    105 maximum allowed number of steps=    120.
 GradGradGradGradGradGradGradGradGradGradGradGradGradGradGradGradGradGrad

                          Input orientation:                          
 ---------------------------------------------------------------------
 Center     Atomic      Atomic             Coordinates (Angstroms)
 Number     Number       Type             X           Y           Z
 ---------------------------------------------------------------------
      1          6           0        0.109284    0.252476    0.557634
      2          7           0       -0.154394   -0.659610   -0.377294
      3          6           0       -0.617408   -1.799496    0.241763
      4          6           0       -0.626356   -1.553614    1.578186
      5          7           0       -0.171398   -0.264684    1.753720
      6          1           0        0.485574    1.246206    0.367795
      7          1           0       -0.896202   -2.679320   -0.316795
      8          1           0       -0.920930   -2.173266    2.410738
      9          6           0       -0.044481    0.425252    3.038013
     10          1           0        0.577829   -0.172043    3.705640
     11          1           0        0.426996    1.394213    2.875506
     12          1           0       -1.034282    0.568322    3.474397
     13          6           0        0.081366   -0.493612   -1.830161
     14          1           0        1.089976   -0.855035   -2.047795
     15          1           0       -0.636816   -1.149589   -2.329684
     16          6           0       -0.097480    0.932788   -2.257490
     17          1           0       -1.105128    1.337003   -2.181326
     18          6           0        0.896933    1.671776   -2.741587
     19          1           0        0.729834    2.690186   -3.076910
     20          1           0        1.907083    1.282048   -2.844348
 ---------------------------------------------------------------------
                    Distance matrix (angstroms):
                    1          2          3          4          5
     1  C    0.000000
     2  N    1.332485   0.000000
     3  C    2.199647   1.377299   0.000000
     4  C    2.201057   2.201339   1.358884   0.000000
     5  N    1.332989   2.167366   2.200133   1.378093   0.000000
     6  H    1.079413   2.144027   3.241721   3.246602   2.152949
     7  H    3.220412   2.152479   1.078797   2.220582   3.262337
     8  H    3.221732   3.263718   2.221775   1.078835   2.153174
     9  C    2.491139   3.585154   3.618945   2.526971   1.463396
    10  H    3.210871   4.176628   4.009444   2.807999   2.092825
    11  H    2.603274   3.890618   4.269328   3.388550   2.090076
    12  H    3.148811   4.137335   4.028681   2.874827   2.097426
    13  C    2.501798   1.481202   2.546858   3.638860   3.600070
    14  H    2.996097   2.092181   3.008196   4.072044   4.048592
    15  H    3.295308   2.069937   2.652375   3.928714   4.204029
    16  C    2.903532   2.464570   3.739247   4.601556   4.186790
    17  H    3.186361   2.853925   3.993352   4.766426   4.349924
    18  C    3.676909   3.482891   4.821134   5.602141   5.009890
    19  H    4.420116   4.392143   5.743335   6.443525   5.733974
    20  H    3.983162   3.755806   5.039152   5.832504   5.277754
                    6          7          8          9         10
     6  H    0.000000
     7  H    4.217549   0.000000
     8  H    4.224294   2.774191   0.000000
     9  C    2.843411   4.649573   2.813171   0.000000
    10  H    3.627830   4.963788   2.815660   1.090760   0.000000
    11  H    2.512758   5.341845   3.841851   1.089764   1.779053
    12  H    3.524268   4.993934   2.942877   1.091149   1.788998
    13  C    2.832201   2.832532   4.670231   4.955731   5.567313
    14  H    3.258158   3.204572   5.065569   5.365778   5.816424
    15  H    3.778358   2.541472   4.858007   5.625225   6.233466
    16  C    2.707453   4.177509   5.667274   5.320033   6.102099
    17  H    3.006093   4.432942   5.782990   5.403495   6.306024
    18  C    3.165214   5.294052   6.680975   5.986974   6.713288
    19  H    3.743091   6.252505   7.516147   6.566717   7.363318
    20  H    3.512810   5.471688   6.895852   6.256586   6.839857
                   11         12         13         14         15
    11  H    0.000000
    12  H    1.782162   0.000000
    13  C    5.081992   5.523650   0.000000
    14  H    5.453215   6.085476   1.093291   0.000000
    15  H    5.890384   6.066016   1.093442   1.774270   0.000000
    16  C    5.180312   5.819361   1.499738   2.156463   2.152299
    17  H    5.284149   5.708160   2.209578   3.105051   2.534653
    18  C    5.643546   6.601944   2.486916   2.627430   3.237615
    19  H    6.099386   7.108730   3.480153   3.709093   4.143664
    20  H    5.909312   7.006252   2.741311   2.422661   3.556566
                   16         17         18         19         20
    16  C    0.000000
    17  H    1.088368   0.000000
    18  C    1.330154   2.105757   0.000000
    19  H    2.108162   2.449543   1.085137   0.000000
    20  H    2.117701   3.084807   1.087589   1.850095   0.000000
 Stoichiometry    C7H11N2(1+)
 Framework group  C1[X(C7H11N2)]
 Deg. of freedom    54
 Full point group                 C1      NOp   1
 Largest Abelian subgroup         C1      NOp   1
 Largest concise Abelian subgroup C1      NOp   1
                         Standard orientation:                         
 ---------------------------------------------------------------------
 Center     Atomic      Atomic             Coordinates (Angstroms)
 Number     Number       Type             X           Y           Z
 ---------------------------------------------------------------------
      1          6           0       -0.381315   -0.556888   -0.064558
      2          7           0        0.207601    0.638252   -0.046185
      3          6           0       -0.769898    1.606840    0.011133
      4          6           0       -1.968021    0.965871    0.026125
      5          7           0       -1.702467   -0.385647   -0.018803
      6          1           0        0.135310   -1.503704   -0.106632
      7          1           0       -0.530731    2.658537    0.034321
      8          1           0       -2.975731    1.348320    0.072362
      9          6           0       -2.705367   -1.451051    0.006368
     10          1           0       -3.418662   -1.290856   -0.803140
     11          1           0       -2.208018   -2.410318   -0.135177
     12          1           0       -3.220520   -1.444174    0.968229
     13          6           0        1.665824    0.879046   -0.143977
     14          1           0        1.914231    0.996458   -1.202180
     15          1           0        1.849570    1.830549    0.362475
     16          6           0        2.450859   -0.232312    0.486751
     17          1           0        2.348857   -0.344368    1.564520
     18          6           0        3.262760   -1.026403   -0.205741
     19          1           0        3.846238   -1.799471    0.283587
     20          1           0        3.394452   -0.919831   -1.280055
 ---------------------------------------------------------------------
 Rotational constants (GHZ):      3.5586346      1.0023273      0.8098990
 Standard basis: 6-31+G(d) (6D, 7F)
 There are   193 symmetry adapted cartesian basis functions of A   symmetry.
 There are   193 symmetry adapted basis functions of A   symmetry.
   193 basis functions,   332 primitive gaussians,   193 cartesian basis functions
    33 alpha electrons       33 beta electrons
       nuclear repulsion energy       437.9082655534 Hartrees.
 NAtoms=   20 NActive=   20 NUniq=   20 SFac= 1.00D+00 NAtFMM=   60 NAOKFM=F Big=F
 Integral buffers will be    131072 words long.
 Raffenetti 2 integral format.
 Two-electron integral symmetry is turned on.
 One-electron integrals computed using PRISM.
 NBasis=   193 RedAO= T EigKep=  2.53D-05  NBF=   193
 NBsUse=   193 1.00D-06 EigRej= -1.00D+00 NBFU=   193
 ExpMin= 4.38D-02 ExpMax= 4.17D+03 ExpMxC= 6.27D+02 IAcc=2 IRadAn=         4 AccDes= 0.00D+00
 Harris functional with IExCor= 1009 and IRadAn=       4 diagonalized for initial guess.
 HarFok:  IExCor= 1009 AccDes= 0.00D+00 IRadAn=         4 IDoV= 1 UseB2=F ITyADJ=14
 ICtDFT=  3500011 ScaDFX=  1.000000  1.000000  1.000000  1.000000
 FoFCou: FMM=F IPFlag=           0 FMFlag=      100000 FMFlg1=           0
         NFxFlg=           0 DoJE=T BraDBF=F KetDBF=T FulRan=T
         wScrn=  0.000000 ICntrl=     500 IOpCl=  0 I1Cent=   200000004 NGrid=           0
         NMat0=    1 NMatS0=      1 NMatT0=    0 NMatD0=    1 NMtDS0=    0 NMtDT0=    0
 Petite list used in FoFCou.
 Requested convergence on RMS density matrix=1.00D-08 within 128 cycles.
 Requested convergence on MAX density matrix=1.00D-06.
 Requested convergence on             energy=1.00D-06.
 No special actions if energy rises.
 SCF Done:  E(RM062X) =  -382.453453924     A.U. after   14 cycles
            NFock= 14  Conv=0.18D-08     -V/T= 2.0087

 **********************************************************************

            Population analysis using the SCF density.

 **********************************************************************

 Orbital symmetries:
       Occupied  (A) (A) (A) (A) (A) (A) (A) (A) (A) (A) (A) (A)
                 (A) (A) (A) (A) (A) (A) (A) (A) (A) (A) (A) (A)
                 (A) (A) (A) (A) (A) (A) (A) (A) (A)
       Virtual   (A) (A) (A) (A) (A) (A) (A) (A) (A) (A) (A) (A)
                 (A) (A) (A) (A) (A) (A) (A) (A) (A) (A) (A) (A)
                 (A) (A) (A) (A) (A) (A) (A) (A) (A) (A) (A) (A)
                 (A) (A) (A) (A) (A) (A) (A) (A) (A) (A) (A) (A)
                 (A) (A) (A) (A) (A) (A) (A) (A) (A) (A) (A) (A)
                 (A) (A) (A) (A) (A) (A) (A) (A) (A) (A) (A) (A)
                 (A) (A) (A) (A) (A) (A) (A) (A) (A) (A) (A) (A)
                 (A) (A) (A) (A) (A) (A) (A) (A) (A) (A) (A) (A)
                 (A) (A) (A) (A) (A) (A) (A) (A) (A) (A) (A) (A)
                 (A) (A) (A) (A) (A) (A) (A) (A) (A) (A) (A) (A)
                 (A) (A) (A) (A) (A) (A) (A) (A) (A) (A) (A) (A)
                 (A) (A) (A) (A) (A) (A) (A) (A) (A) (A) (A) (A)
                 (A) (A) (A) (A) (A) (A) (A) (A) (A) (A) (A) (A)
                 (A) (A) (A) (A)
 The electronic state is 1-A.
 Alpha  occ. eigenvalues --  -15.02606 -15.02244 -10.81679 -10.76749 -10.76650
 Alpha  occ. eigenvalues --  -10.76119 -10.75490 -10.70410 -10.69348  -1.35823
 Alpha  occ. eigenvalues --   -1.23188  -1.07659  -1.04141  -1.00765  -0.94639
 Alpha  occ. eigenvalues --   -0.89111  -0.86157  -0.81333  -0.78666  -0.74513
 Alpha  occ. eigenvalues --   -0.71738  -0.70706  -0.69765  -0.68912  -0.68081
 Alpha  occ. eigenvalues --   -0.66921  -0.63580  -0.63514  -0.60410  -0.56545
 Alpha  occ. eigenvalues --   -0.52942  -0.48623  -0.47536
 Alpha virt. eigenvalues --   -0.14593  -0.11714  -0.11389  -0.11079  -0.09324
 Alpha virt. eigenvalues --   -0.08774  -0.07982  -0.07763  -0.06906  -0.06607
 Alpha virt. eigenvalues --   -0.05279  -0.05027  -0.04614  -0.03998  -0.03679
 Alpha virt. eigenvalues --   -0.02086  -0.01752  -0.01529  -0.01025   0.00583
 Alpha virt. eigenvalues --    0.01537   0.01724   0.01936   0.02999   0.03783
 Alpha virt. eigenvalues --    0.04142   0.04762   0.05752   0.06248   0.07403
 Alpha virt. eigenvalues --    0.08066   0.08698   0.09533   0.09878   0.10429
 Alpha virt. eigenvalues --    0.10578   0.10989   0.11648   0.12402   0.12977
 Alpha virt. eigenvalues --    0.13812   0.14185   0.15352   0.15624   0.16503
 Alpha virt. eigenvalues --    0.16747   0.17652   0.18874   0.19075   0.20570
 Alpha virt. eigenvalues --    0.21204   0.24801   0.25996   0.29569   0.30737
 Alpha virt. eigenvalues --    0.32759   0.33863   0.34369   0.37396   0.49446
 Alpha virt. eigenvalues --    0.53397   0.54288   0.55410   0.55779   0.56856
 Alpha virt. eigenvalues --    0.59431   0.60763   0.62343   0.63304   0.63688
 Alpha virt. eigenvalues --    0.65305   0.68212   0.71020   0.72184   0.74657
 Alpha virt. eigenvalues --    0.74977   0.76817   0.78649   0.80530   0.81832
 Alpha virt. eigenvalues --    0.82869   0.83306   0.85529   0.87448   0.88414
 Alpha virt. eigenvalues --    0.89156   0.91167   0.92702   0.94621   0.97622
 Alpha virt. eigenvalues --    0.99239   1.00827   1.01657   1.04947   1.05108
 Alpha virt. eigenvalues --    1.11279   1.14494   1.15431   1.17461   1.19153
 Alpha virt. eigenvalues --    1.22099   1.22527   1.23277   1.26758   1.27682
 Alpha virt. eigenvalues --    1.35910   1.38174   1.40309   1.40950   1.47562
 Alpha virt. eigenvalues --    1.49438   1.55136   1.60278   1.68672   1.72347
 Alpha virt. eigenvalues --    1.74636   1.76001   1.79986   1.83331   1.83902
 Alpha virt. eigenvalues --    1.87114   1.90873   1.94485   1.96730   1.97968
 Alpha virt. eigenvalues --    2.00555   2.02713   2.06204   2.08947   2.13256
 Alpha virt. eigenvalues --    2.14623   2.17146   2.21256   2.21820   2.25975
 Alpha virt. eigenvalues --    2.27363   2.29733   2.32255   2.32873   2.40282
 Alpha virt. eigenvalues --    2.41545   2.43919   2.60060   2.62380   2.64374
 Alpha virt. eigenvalues --    2.70423   2.71643   2.76169   2.90258   2.96053
 Alpha virt. eigenvalues --    3.00518   3.97323   4.03468   4.12883   4.14944
 Alpha virt. eigenvalues --    4.22970   4.27964   4.28896   4.35826   4.41314
          Condensed to atoms (all electrons):
               1          2          3          4          5          6
     1  C    5.318803   0.542789  -0.228837  -0.023810   0.411809   0.374043
     2  N    0.542789   6.745351   0.133800   0.144776  -0.188031  -0.023552
     3  C   -0.228837   0.133800   5.670461   0.125494   0.127474   0.005367
     4  C   -0.023810   0.144776   0.125494   5.405340   0.237089   0.005986
     5  N    0.411809  -0.188031   0.127474   0.237089   6.605456  -0.042120
     6  H    0.374043  -0.023552   0.005367   0.005986  -0.042120   0.369825
     7  H    0.017361  -0.052312   0.402222  -0.040874   0.008608  -0.000034
     8  H    0.016978   0.007365  -0.018752   0.371059  -0.045569  -0.000033
     9  C   -0.247776  -0.042673   0.111836  -0.209337   0.181952  -0.009288
    10  H   -0.007833  -0.001850   0.005933  -0.009674  -0.028697   0.000031
    11  H    0.021963   0.007826  -0.003233   0.007231  -0.047564   0.000806
    12  H   -0.011158  -0.001096  -0.002414  -0.005504  -0.027635   0.000032
    13  C   -0.107409   0.153799  -0.265936   0.137004  -0.018470  -0.002823
    14  H   -0.004477  -0.020407  -0.011773   0.001543  -0.002453   0.000059
    15  H    0.009681  -0.063826   0.001390   0.006047   0.001787   0.000014
    16  C    0.013318  -0.154189   0.089635  -0.063772   0.042756   0.015663
    17  H    0.006438   0.018724  -0.000225   0.000628  -0.001128  -0.000258
    18  C   -0.005527   0.004727  -0.013190   0.007488  -0.006491  -0.004692
    19  H   -0.001747   0.001396   0.000855  -0.000336   0.000004   0.000019
    20  H    0.005770   0.002304   0.000273   0.000941   0.000214  -0.000068
               7          8          9         10         11         12
     1  C    0.017361   0.016978  -0.247776  -0.007833   0.021963  -0.011158
     2  N   -0.052312   0.007365  -0.042673  -0.001850   0.007826  -0.001096
     3  C    0.402222  -0.018752   0.111836   0.005933  -0.003233  -0.002414
     4  C   -0.040874   0.371059  -0.209337  -0.009674   0.007231  -0.005504
     5  N    0.008608  -0.045569   0.181952  -0.028697  -0.047564  -0.027635
     6  H   -0.000034  -0.000033  -0.009288   0.000031   0.000806   0.000032
     7  H    0.389832  -0.000189  -0.000935  -0.000001   0.000002  -0.000001
     8  H   -0.000189   0.386316  -0.009705   0.000085   0.000024   0.000064
     9  C   -0.000935  -0.009705   5.453686   0.387076   0.362069   0.392125
    10  H   -0.000001   0.000085   0.387076   0.421594  -0.019432  -0.026628
    11  H    0.000002   0.000024   0.362069  -0.019432   0.434138  -0.020091
    12  H   -0.000001   0.000064   0.392125  -0.026628  -0.020091   0.417610
    13  C   -0.017085  -0.001001  -0.024206  -0.000089   0.001595  -0.000552
    14  H    0.000067   0.000001  -0.000811   0.000000   0.000000   0.000000
    15  H    0.000637   0.000000   0.001006   0.000000   0.000000   0.000000
    16  C    0.000977  -0.000039   0.031572  -0.000050   0.000095  -0.000105
    17  H    0.000000   0.000000  -0.000094   0.000000   0.000000   0.000000
    18  C    0.000751   0.000026  -0.004285  -0.000008  -0.000054  -0.000019
    19  H    0.000000   0.000000  -0.000019   0.000000   0.000000   0.000000
    20  H    0.000000   0.000000   0.000159   0.000000   0.000000   0.000000
              13         14         15         16         17         18
     1  C   -0.107409  -0.004477   0.009681   0.013318   0.006438  -0.005527
     2  N    0.153799  -0.020407  -0.063826  -0.154189   0.018724   0.004727
     3  C   -0.265936  -0.011773   0.001390   0.089635  -0.000225  -0.013190
     4  C    0.137004   0.001543   0.006047  -0.063772   0.000628   0.007488
     5  N   -0.018470  -0.002453   0.001787   0.042756  -0.001128  -0.006491
     6  H   -0.002823   0.000059   0.000014   0.015663  -0.000258  -0.004692
     7  H   -0.017085   0.000067   0.000637   0.000977   0.000000   0.000751
     8  H   -0.001001   0.000001   0.000000  -0.000039   0.000000   0.000026
     9  C   -0.024206  -0.000811   0.001006   0.031572  -0.000094  -0.004285
    10  H   -0.000089   0.000000   0.000000  -0.000050   0.000000  -0.000008
    11  H    0.001595   0.000000   0.000000   0.000095   0.000000  -0.000054
    12  H   -0.000552   0.000000   0.000000  -0.000105   0.000000  -0.000019
    13  C    5.781293   0.401878   0.390849   0.001261  -0.051067   0.082229
    14  H    0.401878   0.429318  -0.025134  -0.063015   0.002350   0.010840
    15  H    0.390849  -0.025134   0.442147  -0.015142  -0.002382  -0.014765
    16  C    0.001261  -0.063015  -0.015142   5.440152   0.335348   0.451858
    17  H   -0.051067   0.002350  -0.002382   0.335348   0.440938   0.004312
    18  C    0.082229   0.010840  -0.014765   0.451858   0.004312   5.070756
    19  H    0.016977   0.000113  -0.000120  -0.048969  -0.003457   0.386321
    20  H    0.017007   0.002832   0.000035  -0.093686   0.003119   0.403128
              19         20
     1  C   -0.001747   0.005770
     2  N    0.001396   0.002304
     3  C    0.000855   0.000273
     4  C   -0.000336   0.000941
     5  N    0.000004   0.000214
     6  H    0.000019  -0.000068
     7  H    0.000000   0.000000
     8  H    0.000000   0.000000
     9  C   -0.000019   0.000159
    10  H    0.000000   0.000000
    11  H    0.000000   0.000000
    12  H    0.000000   0.000000
    13  C    0.016977   0.017007
    14  H    0.000113   0.002832
    15  H   -0.000120   0.000035
    16  C   -0.048969  -0.093686
    17  H   -0.003457   0.003119
    18  C    0.386321   0.403128
    19  H    0.424664  -0.020297
    20  H   -0.020297   0.454703
 Mulliken charges:
               1
     1  C   -0.100378
     2  N   -0.214922
     3  C   -0.130381
     4  C   -0.097317
     5  N   -0.208990
     6  H    0.311023
     7  H    0.290974
     8  H    0.293369
     9  C   -0.372352
    10  H    0.279543
    11  H    0.254625
    12  H    0.285371
    13  C   -0.495255
    14  H    0.279068
    15  H    0.267776
    16  C    0.016331
    17  H    0.246754
    18  C   -0.373405
    19  H    0.244597
    20  H    0.223567
 Sum of Mulliken charges =   1.00000
 Mulliken charges with hydrogens summed into heavy atoms:
               1
     1  C    0.210646
     2  N   -0.214922
     3  C    0.160593
     4  C    0.196052
     5  N   -0.208990
     9  C    0.447187
    13  C    0.051590
    16  C    0.263085
    18  C    0.094759
 Electronic spatial extent (au):  <R**2>=           1418.4694
 Charge=              1.0000 electrons
 Dipole moment (field-independent basis, Debye):
    X=             -2.2921    Y=             -0.3529    Z=             -0.2404  Tot=              2.3315
 Quadrupole moment (field-independent basis, Debye-Ang):
   XX=            -25.8092   YY=            -38.5771   ZZ=            -52.0792
   XY=              1.2087   XZ=             -1.1339   YZ=              0.0721
 Traceless Quadrupole moment (field-independent basis, Debye-Ang):
   XX=             13.0126   YY=              0.2447   ZZ=            -13.2574
   XY=              1.2087   XZ=             -1.1339   YZ=              0.0721
 Octapole moment (field-independent basis, Debye-Ang**2):
  XXX=            -33.6812  YYY=              6.3776  ZZZ=             -0.3155  XYY=             -8.8006
  XXY=            -20.5992  XXZ=             -3.0908  XZZ=              3.9690  YZZ=             -2.8772
  YYZ=              0.7822  XYZ=             -0.8719
 Hexadecapole moment (field-independent basis, Debye-Ang**3):
 XXXX=          -1150.9676 YYYY=           -347.5044 ZZZZ=            -88.0070 XXXY=            -29.9823
 XXXZ=            -14.2577 YYYX=              9.6557 YYYZ=              2.5898 ZZZX=             -3.8232
 ZZZY=             -2.1029 XXYY=           -234.2462 XXZZ=           -227.5731 YYZZ=            -88.6954
 XXYZ=             -2.0762 YYXZ=              1.7829 ZZXY=              5.6323
 N-N= 4.379082655534D+02 E-N=-1.749483360458D+03  KE= 3.791520446166D+02
 ******************************Gaussian NBO Version 3.1******************************
             N A T U R A L   A T O M I C   O R B I T A L   A N D
          N A T U R A L   B O N D   O R B I T A L   A N A L Y S I S
 ******************************Gaussian NBO Version 3.1******************************
       /RESON  / : Allow strongly delocalized NBO set

 Analyzing the SCF density

 Job title: 3-cation                                                        

 Storage needed:    113160 in NPA,    149994 in NBO (  33552232 available)


 NATURAL POPULATIONS:  Natural atomic orbital occupancies 
                                                          
   NAO  Atom  No  lang   Type(AO)    Occupancy      Energy
 ----------------------------------------------------------
     1    C    1  S      Cor( 1S)     1.99931     -10.67729
     2    C    1  S      Val( 2S)     0.88890      -0.37463
     3    C    1  S      Ryd( 3S)     0.00229       0.82565
     4    C    1  S      Ryd( 4S)     0.00016       1.66265
     5    C    1  S      Ryd( 5S)     0.00006       2.81755
     6    C    1  px     Val( 2p)     0.83372      -0.20472
     7    C    1  px     Ryd( 4p)     0.00573       0.64235
     8    C    1  px     Ryd( 3p)     0.00021       0.46317
     9    C    1  py     Val( 2p)     1.03705      -0.24694
    10    C    1  py     Ryd( 4p)     0.00551       0.69580
    11    C    1  py     Ryd( 3p)     0.00020       0.31124
    12    C    1  pz     Val( 2p)     0.94229      -0.32444
    13    C    1  pz     Ryd( 4p)     0.00269       0.50015
    14    C    1  pz     Ryd( 3p)     0.00028       0.19461
    15    C    1  dxy    Ryd( 3d)     0.00129       2.27467
    16    C    1  dxz    Ryd( 3d)     0.00172       1.78148
    17    C    1  dyz    Ryd( 3d)     0.00134       1.73636
    18    C    1  dx2y2  Ryd( 3d)     0.00136       2.32418
    19    C    1  dz2    Ryd( 3d)     0.00051       2.17039

    20    N    2  S      Cor( 1S)     1.99934     -14.83189
    21    N    2  S      Val( 2S)     1.20268      -0.76084
    22    N    2  S      Ryd( 4S)     0.00129       1.19662
    23    N    2  S      Ryd( 3S)     0.00057       0.95428
    24    N    2  S      Ryd( 5S)     0.00005       2.86442
    25    N    2  px     Val( 2p)     1.34310      -0.48764
    26    N    2  px     Ryd( 4p)     0.00360       1.29890
    27    N    2  px     Ryd( 3p)     0.00061       0.66270
    28    N    2  py     Val( 2p)     1.31898      -0.48504
    29    N    2  py     Ryd( 4p)     0.00246       1.03248
    30    N    2  py     Ryd( 3p)     0.00042       0.36436
    31    N    2  pz     Val( 2p)     1.48210      -0.48206
    32    N    2  pz     Ryd( 4p)     0.00283       0.67229
    33    N    2  pz     Ryd( 3p)     0.00022       0.23168
    34    N    2  dxy    Ryd( 3d)     0.00072       2.42275
    35    N    2  dxz    Ryd( 3d)     0.00109       1.79608
    36    N    2  dyz    Ryd( 3d)     0.00099       1.78139
    37    N    2  dx2y2  Ryd( 3d)     0.00061       2.29613
    38    N    2  dz2    Ryd( 3d)     0.00059       2.20461

    39    C    3  S      Cor( 1S)     1.99918     -10.62440
    40    C    3  S      Val( 2S)     0.94698      -0.38053
    41    C    3  S      Ryd( 4S)     0.00115       0.92942
    42    C    3  S      Ryd( 3S)     0.00009       0.61345
    43    C    3  S      Ryd( 5S)     0.00003       3.87862
    44    C    3  px     Val( 2p)     0.92033      -0.22426
    45    C    3  px     Ryd( 4p)     0.00611       0.55835
    46    C    3  px     Ryd( 3p)     0.00012       0.32788
    47    C    3  py     Val( 2p)     1.12223      -0.24404
    48    C    3  py     Ryd( 4p)     0.00416       0.85676
    49    C    3  py     Ryd( 3p)     0.00026       0.22608
    50    C    3  pz     Val( 2p)     1.03589      -0.30847
    51    C    3  pz     Ryd( 4p)     0.00170       0.49426
    52    C    3  pz     Ryd( 3p)     0.00051       0.15194
    53    C    3  dxy    Ryd( 3d)     0.00110       2.29486
    54    C    3  dxz    Ryd( 3d)     0.00087       1.79034
    55    C    3  dyz    Ryd( 3d)     0.00103       1.71801
    56    C    3  dx2y2  Ryd( 3d)     0.00070       2.24206
    57    C    3  dz2    Ryd( 3d)     0.00053       2.20097

    58    C    4  S      Cor( 1S)     1.99918     -10.62447
    59    C    4  S      Val( 2S)     0.94772      -0.38074
    60    C    4  S      Ryd( 3S)     0.00110       0.92547
    61    C    4  S      Ryd( 4S)     0.00006       1.10410
    62    C    4  S      Ryd( 5S)     0.00003       3.28529
    63    C    4  px     Val( 2p)     1.21293      -0.27097
    64    C    4  px     Ryd( 4p)     0.00498       0.87856
    65    C    4  px     Ryd( 3p)     0.00035       0.27187
    66    C    4  py     Val( 2p)     0.82857      -0.19842
    67    C    4  py     Ryd( 4p)     0.00537       0.55127
    68    C    4  py     Ryd( 3p)     0.00007       0.29726
    69    C    4  pz     Val( 2p)     1.03983      -0.30896
    70    C    4  pz     Ryd( 4p)     0.00186       0.48144
    71    C    4  pz     Ryd( 3p)     0.00055       0.14524
    72    C    4  dxy    Ryd( 3d)     0.00069       2.27123
    73    C    4  dxz    Ryd( 3d)     0.00089       1.71583
    74    C    4  dyz    Ryd( 3d)     0.00101       1.78826
    75    C    4  dx2y2  Ryd( 3d)     0.00111       2.26200
    76    C    4  dz2    Ryd( 3d)     0.00054       2.19202

    77    N    5  S      Cor( 1S)     1.99935     -14.83703
    78    N    5  S      Val( 2S)     1.19673      -0.76315
    79    N    5  S      Ryd( 3S)     0.00094       0.89215
    80    N    5  S      Ryd( 4S)     0.00033       1.31899
    81    N    5  S      Ryd( 5S)     0.00006       2.58675
    82    N    5  px     Val( 2p)     1.32940      -0.49200
    83    N    5  px     Ryd( 4p)     0.00260       1.12856
    84    N    5  px     Ryd( 3p)     0.00043       0.58704
    85    N    5  py     Val( 2p)     1.33612      -0.48774
    86    N    5  py     Ryd( 4p)     0.00286       1.15190
    87    N    5  py     Ryd( 3p)     0.00029       0.41584
    88    N    5  pz     Val( 2p)     1.48661      -0.48526
    89    N    5  pz     Ryd( 4p)     0.00268       0.64683
    90    N    5  pz     Ryd( 3p)     0.00026       0.21610
    91    N    5  dxy    Ryd( 3d)     0.00055       2.27246
    92    N    5  dxz    Ryd( 3d)     0.00118       1.77904
    93    N    5  dyz    Ryd( 3d)     0.00091       1.75830
    94    N    5  dx2y2  Ryd( 3d)     0.00078       2.43363
    95    N    5  dz2    Ryd( 3d)     0.00059       2.20828

    96    H    6  S      Val( 1S)     0.71267      -0.07808
    97    H    6  S      Ryd( 2S)     0.00085       0.50547

    98    H    7  S      Val( 1S)     0.71127      -0.04405
    99    H    7  S      Ryd( 2S)     0.00044       0.45632

   100    H    8  S      Val( 1S)     0.71086      -0.04486
   101    H    8  S      Ryd( 2S)     0.00039       0.44954

   102    C    9  S      Cor( 1S)     1.99956     -10.62995
   103    C    9  S      Val( 2S)     1.10694      -0.47276
   104    C    9  S      Ryd( 4S)     0.00076       1.12439
   105    C    9  S      Ryd( 3S)     0.00009       0.51002
   106    C    9  S      Ryd( 5S)     0.00001       4.03785
   107    C    9  px     Val( 2p)     1.06428      -0.26820
   108    C    9  px     Ryd( 4p)     0.00281       0.45650
   109    C    9  px     Ryd( 3p)     0.00007       0.18527
   110    C    9  py     Val( 2p)     1.02363      -0.26133
   111    C    9  py     Ryd( 4p)     0.00281       0.48110
   112    C    9  py     Ryd( 3p)     0.00007       0.15462
   113    C    9  pz     Val( 2p)     1.28522      -0.29807
   114    C    9  pz     Ryd( 4p)     0.00092       0.50456
   115    C    9  pz     Ryd( 3p)     0.00008       0.15374
   116    C    9  dxy    Ryd( 3d)     0.00128       2.12810
   117    C    9  dxz    Ryd( 3d)     0.00110       2.04085
   118    C    9  dyz    Ryd( 3d)     0.00039       1.67816
   119    C    9  dx2y2  Ryd( 3d)     0.00031       1.93126
   120    C    9  dz2    Ryd( 3d)     0.00096       2.02875

   121    H   10  S      Val( 1S)     0.72222      -0.05357
   122    H   10  S      Ryd( 2S)     0.00034       0.58917

   123    H   11  S      Val( 1S)     0.72906      -0.06401
   124    H   11  S      Ryd( 2S)     0.00030       0.58305

   125    H   12  S      Val( 1S)     0.72211      -0.05268
   126    H   12  S      Ryd( 2S)     0.00033       0.59071

   127    C   13  S      Cor( 1S)     1.99937     -10.62632
   128    C   13  S      Val( 2S)     1.03559      -0.43958
   129    C   13  S      Ryd( 4S)     0.00116       1.21996
   130    C   13  S      Ryd( 3S)     0.00012       0.47672
   131    C   13  S      Ryd( 5S)     0.00002       4.18847
   132    C   13  px     Val( 2p)     0.78383      -0.22051
   133    C   13  px     Ryd( 4p)     0.00301       0.48139
   134    C   13  px     Ryd( 3p)     0.00019       0.21623
   135    C   13  py     Val( 2p)     1.19890      -0.28911
   136    C   13  py     Ryd( 4p)     0.00408       0.56738
   137    C   13  py     Ryd( 3p)     0.00015       0.28933
   138    C   13  pz     Val( 2p)     1.25969      -0.29505
   139    C   13  pz     Ryd( 4p)     0.00393       0.68816
   140    C   13  pz     Ryd( 3p)     0.00004       0.20904
   141    C   13  dxy    Ryd( 3d)     0.00041       2.03884
   142    C   13  dxz    Ryd( 3d)     0.00061       1.82603
   143    C   13  dyz    Ryd( 3d)     0.00073       2.01492
   144    C   13  dx2y2  Ryd( 3d)     0.00143       2.10083
   145    C   13  dz2    Ryd( 3d)     0.00113       2.07668

   146    H   14  S      Val( 1S)     0.72032      -0.05134
   147    H   14  S      Ryd( 2S)     0.00082       0.60410

   148    H   15  S      Val( 1S)     0.71621      -0.05474
   149    H   15  S      Ryd( 2S)     0.00076       0.59716

   150    C   16  S      Cor( 1S)     1.99916     -10.55679
   151    C   16  S      Val( 2S)     0.98913      -0.37744
   152    C   16  S      Ryd( 3S)     0.00187       0.95334
   153    C   16  S      Ryd( 4S)     0.00007       1.26938
   154    C   16  S      Ryd( 5S)     0.00003       3.34028
   155    C   16  px     Val( 2p)     1.06183      -0.24489
   156    C   16  px     Ryd( 4p)     0.00416       0.57441
   157    C   16  px     Ryd( 3p)     0.00024       0.20337
   158    C   16  py     Val( 2p)     1.03029      -0.22816
   159    C   16  py     Ryd( 4p)     0.00418       0.52984
   160    C   16  py     Ryd( 3p)     0.00016       0.22299
   161    C   16  pz     Val( 2p)     1.20614      -0.22533
   162    C   16  pz     Ryd( 4p)     0.00375       0.87159
   163    C   16  pz     Ryd( 3p)     0.00022       0.25596
   164    C   16  dxy    Ryd( 3d)     0.00039       2.23527
   165    C   16  dxz    Ryd( 3d)     0.00042       1.95946
   166    C   16  dyz    Ryd( 3d)     0.00054       2.02579
   167    C   16  dx2y2  Ryd( 3d)     0.00047       1.87209
   168    C   16  dz2    Ryd( 3d)     0.00082       2.10484

   169    H   17  S      Val( 1S)     0.73942      -0.01652
   170    H   17  S      Ryd( 2S)     0.00075       0.53971

   171    C   18  S      Cor( 1S)     1.99914     -10.54798
   172    C   18  S      Val( 2S)     1.07063      -0.39135
   173    C   18  S      Ryd( 4S)     0.00110       0.95726
   174    C   18  S      Ryd( 3S)     0.00013       0.45080
   175    C   18  S      Ryd( 5S)     0.00001       3.77791
   176    C   18  px     Val( 2p)     1.02268      -0.22587
   177    C   18  px     Ryd( 4p)     0.00242       0.47729
   178    C   18  px     Ryd( 3p)     0.00017       0.16127
   179    C   18  py     Val( 2p)     1.06959      -0.22031
   180    C   18  py     Ryd( 4p)     0.00280       0.53383
   181    C   18  py     Ryd( 3p)     0.00018       0.17737
   182    C   18  pz     Val( 2p)     1.19925      -0.20162
   183    C   18  pz     Ryd( 4p)     0.00414       0.71169
   184    C   18  pz     Ryd( 3p)     0.00012       0.20300
   185    C   18  dxy    Ryd( 3d)     0.00047       2.11447
   186    C   18  dxz    Ryd( 3d)     0.00034       1.93517
   187    C   18  dyz    Ryd( 3d)     0.00052       1.98078
   188    C   18  dx2y2  Ryd( 3d)     0.00067       1.78213
   189    C   18  dz2    Ryd( 3d)     0.00077       2.07972

   190    H   19  S      Val( 1S)     0.74241      -0.00200
   191    H   19  S      Ryd( 2S)     0.00056       0.53841

   192    H   20  S      Val( 1S)     0.76320      -0.02480
   193    H   20  S      Ryd( 2S)     0.00067       0.55015

 WARNING:  Population inversion found on atom  C    1
           Population inversion found on atom  N    2
           Population inversion found on atom  C    3
           Population inversion found on atom  C    4
           Population inversion found on atom  N    5
           Population inversion found on atom  C    9
           Population inversion found on atom  C   13
           Population inversion found on atom  C   16
           Population inversion found on atom  C   18


 Summary of Natural Population Analysis:                  
                                                          
                                       Natural Population 
                Natural  -----------------------------------------------
    Atom  No    Charge         Core      Valence    Rydberg      Total
 -----------------------------------------------------------------------
      C    1    0.27539      1.99931     3.70196    0.02335     5.72461
      N    2   -0.36225      1.99934     5.34686    0.01605     7.36225
      C    3   -0.04298      1.99918     4.02542    0.01837     6.04298
      C    4   -0.04684      1.99918     4.02905    0.01861     6.04684
      N    5   -0.36265      1.99935     5.34886    0.01444     7.36265
      H    6    0.28648      0.00000     0.71267    0.00085     0.71352
      H    7    0.28829      0.00000     0.71127    0.00044     0.71171
      H    8    0.28875      0.00000     0.71086    0.00039     0.71125
      C    9   -0.49129      1.99956     4.48008    0.01165     6.49129
      H   10    0.27744      0.00000     0.72222    0.00034     0.72256
      H   11    0.27064      0.00000     0.72906    0.00030     0.72936
      H   12    0.27756      0.00000     0.72211    0.00033     0.72244
      C   13   -0.29439      1.99937     4.27802    0.01700     6.29439
      H   14    0.27886      0.00000     0.72032    0.00082     0.72114
      H   15    0.28303      0.00000     0.71621    0.00076     0.71697
      C   16   -0.30390      1.99916     4.28740    0.01733     6.30390
      H   17    0.25983      0.00000     0.73942    0.00075     0.74017
      C   18   -0.37514      1.99914     4.36215    0.01385     6.37514
      H   19    0.25704      0.00000     0.74241    0.00056     0.74296
      H   20    0.23613      0.00000     0.76320    0.00067     0.76387
 =======================================================================
   * Total *    1.00000     17.99360    47.84955    0.15685    66.00000

                                 Natural Population      
 --------------------------------------------------------
   Core                      17.99360 ( 99.9644% of  18)
   Valence                   47.84955 ( 99.6866% of  48)
   Natural Minimal Basis     65.84315 ( 99.7624% of  66)
   Natural Rydberg Basis      0.15685 (  0.2376% of  66)
 --------------------------------------------------------

    Atom  No          Natural Electron Configuration
 ----------------------------------------------------------------------------
      C    1      [core]2S( 0.89)2p( 2.81)3d( 0.01)4p( 0.01)
      N    2      [core]2S( 1.20)2p( 4.14)4p( 0.01)
      C    3      [core]2S( 0.95)2p( 3.08)4p( 0.01)
      C    4      [core]2S( 0.95)2p( 3.08)4p( 0.01)
      N    5      [core]2S( 1.20)2p( 4.15)4p( 0.01)
      H    6            1S( 0.71)
      H    7            1S( 0.71)
      H    8            1S( 0.71)
      C    9      [core]2S( 1.11)2p( 3.37)4p( 0.01)
      H   10            1S( 0.72)
      H   11            1S( 0.73)
      H   12            1S( 0.72)
      C   13      [core]2S( 1.04)2p( 3.24)4p( 0.01)
      H   14            1S( 0.72)
      H   15            1S( 0.72)
      C   16      [core]2S( 0.99)2p( 3.30)4p( 0.01)
      H   17            1S( 0.74)
      C   18      [core]2S( 1.07)2p( 3.29)4p( 0.01)
      H   19            1S( 0.74)
      H   20            1S( 0.76)


 NATURAL BOND ORBITAL ANALYSIS:

                       Occupancies       Lewis Structure    Low   High
           Occ.    -------------------  -----------------   occ   occ
  Cycle   Thresh.   Lewis   Non-Lewis     CR  BD  3C  LP    (L)   (NL)   Dev
 =============================================================================
   1(1)    1.90    64.05238   1.94762      9  22   0   2     2      2    0.63
   2(2)    1.90    64.05238   1.94762      9  22   0   2     2      2    0.63
   3(1)    1.80    64.84884   1.15116      9  23   0   1     1      2    0.32
   4(2)    1.80    64.84726   1.15274      9  23   0   1     1      2    0.32
   5(3)    1.80    64.84884   1.15116      9  23   0   1     1      2    0.32
   6(4)    1.80    64.37454   1.62546      9  23   0   1     1      2    0.63
   7(5)    1.80    64.84726   1.15274      9  23   0   1     1      2    0.32
   8(6)    1.80    64.84884   1.15116      9  23   0   1     1      2    0.32
   9(7)    1.80    64.37454   1.62546      9  23   0   1     1      2    0.63
  10(8)    1.80    64.84726   1.15274      9  23   0   1     1      2    0.32
  11(9)    1.80    64.84884   1.15116      9  23   0   1     1      2    0.32
  12(1)    1.70    64.84884   1.15116      9  23   0   1     1      2    0.32
  13(2)    1.70    64.37454   1.62546      9  23   0   1     1      2    0.63
  14(3)    1.70    64.84726   1.15274      9  23   0   1     1      2    0.32
  15(4)    1.70    64.84884   1.15116      9  23   0   1     1      2    0.32
  16(5)    1.70    64.37454   1.62546      9  23   0   1     1      2    0.63
  17(6)    1.70    64.84726   1.15274      9  23   0   1     1      2    0.32
  18(7)    1.70    64.84884   1.15116      9  23   0   1     1      2    0.32
  19(8)    1.70    64.37454   1.62546      9  23   0   1     1      2    0.63
  20(9)    1.70    64.84726   1.15274      9  23   0   1     1      2    0.32
  21(1)    1.60    64.84884   1.15116      9  23   0   1     1      2    0.32
  22(2)    1.60    64.37454   1.62546      9  23   0   1     1      2    0.63
  23(3)    1.60    64.84726   1.15274      9  23   0   1     1      2    0.32
  24(4)    1.60    64.84884   1.15116      9  23   0   1     1      2    0.32
  25(5)    1.60    64.37454   1.62546      9  23   0   1     1      2    0.63
  26(6)    1.60    64.84726   1.15274      9  23   0   1     1      2    0.32
  27(7)    1.60    64.84884   1.15116      9  23   0   1     1      2    0.32
  28(8)    1.60    64.37454   1.62546      9  23   0   1     1      2    0.63
  29(9)    1.60    64.84726   1.15274      9  23   0   1     1      2    0.32
  30(1)    1.50    64.25280   1.74720      9  24   0   0     0      3    0.32
  31(2)    1.50    64.37454   1.62546      9  23   0   1     1      2    0.63
  32(3)    1.50    64.26938   1.73062      9  24   0   0     0      3    0.32
  33(4)    1.50    64.25280   1.74720      9  24   0   0     0      3    0.32
  34(5)    1.50    64.37454   1.62546      9  23   0   1     1      2    0.63
  35(6)    1.50    64.26938   1.73062      9  24   0   0     0      3    0.32
  36(7)    1.50    64.25280   1.74720      9  24   0   0     0      3    0.32
  37(8)    1.50    64.37454   1.62546      9  23   0   1     1      2    0.63
  38(9)    1.50    64.26938   1.73062      9  24   0   0     0      3    0.32
  39(1)    1.80    64.84884   1.15116      9  23   0   1     1      2    0.32
 -----------------------------------------------------------------------------

 Structure accepted: RESONANCE keyword permits strongly delocalized structure

 --------------------------------------------------------
   Core                     17.99362 ( 99.965% of  18)
   Valence Lewis            46.85522 ( 97.615% of  48)
  ==================       ============================
   Total Lewis              64.84884 ( 98.256% of  66)
  -----------------------------------------------------
   Valence non-Lewis         1.05444 (  1.598% of  66)
   Rydberg non-Lewis         0.09672 (  0.147% of  66)
  ==================       ============================
   Total non-Lewis           1.15116 (  1.744% of  66)
 --------------------------------------------------------


       (Occupancy)   Bond orbital/ Coefficients/ Hybrids
 ---------------------------------------------------------------------------------
     1. (1.98276) BD ( 1) C   1 - N   2  
                ( 36.82%)   0.6068* C   1 s( 30.43%)p 2.28( 69.45%)d 0.00(  0.11%)
                                           -0.0001  0.5512 -0.0218  0.0006  0.0017
                                            0.4127  0.0432  0.0021  0.7222  0.0213
                                           -0.0074  0.0170 -0.0003  0.0003  0.0201
                                            0.0004  0.0013 -0.0210 -0.0169
                ( 63.18%)   0.7949* N   2 s( 33.12%)p 2.02( 66.84%)d 0.00(  0.04%)
                                           -0.0001  0.5754 -0.0093 -0.0025 -0.0025
                                           -0.2936 -0.0170  0.0052 -0.7626  0.0174
                                            0.0018 -0.0047  0.0015 -0.0002  0.0131
                                           -0.0002  0.0011 -0.0053 -0.0132
     2. (1.89919) BD ( 2) C   1 - N   2  
                ( 30.29%)   0.5503* C   1 s(  0.00%)p 1.00( 99.76%)d 0.00(  0.24%)
                                            0.0000 -0.0037  0.0023  0.0011  0.0012
                                            0.0291  0.0013  0.0001 -0.0373 -0.0009
                                            0.0007  0.9976 -0.0081  0.0116  0.0016
                                            0.0101  0.0475  0.0025  0.0018
                ( 69.71%)   0.8349* N   2 s(  0.01%)p 1.00( 99.93%)d 0.00(  0.06%)
                                            0.0001  0.0080  0.0018 -0.0011 -0.0002
                                            0.0523  0.0007 -0.0039 -0.0203  0.0002
                                            0.0028  0.9980 -0.0074  0.0106 -0.0003
                                           -0.0179 -0.0161 -0.0007 -0.0003
     3. (1.98402) BD ( 1) C   1 - N   5  
                ( 36.73%)   0.6061* C   1 s( 30.62%)p 2.26( 69.27%)d 0.00(  0.11%)
                                           -0.0001  0.5528 -0.0245  0.0010  0.0015
                                           -0.8285 -0.0417  0.0060  0.0541 -0.0289
                                           -0.0058  0.0283  0.0003 -0.0006 -0.0116
                                           -0.0020  0.0005  0.0267 -0.0166
                ( 63.27%)   0.7954* N   5 s( 33.53%)p 1.98( 66.43%)d 0.00(  0.04%)
                                           -0.0001  0.5790 -0.0076 -0.0015 -0.0025
                                            0.7939 -0.0028 -0.0071 -0.1797  0.0251
                                           -0.0040 -0.0326  0.0008 -0.0001 -0.0002
                                           -0.0009  0.0001  0.0138 -0.0132
     4. (1.98367) BD ( 1) C   1 - H   6  
                ( 64.48%)   0.8030* C   1 s( 39.00%)p 1.56( 60.97%)d 0.00(  0.03%)
                                            0.0003 -0.6242 -0.0191  0.0013  0.0022
                                           -0.3699  0.0145  0.0052  0.6863 -0.0230
                                           -0.0047  0.0341 -0.0003  0.0001  0.0124
                                            0.0007 -0.0010  0.0084  0.0090
                ( 35.52%)   0.5960* H   6 s(100.00%)
                                           -1.0000 -0.0028
     5. (1.98062) BD ( 1) N   2 - C   3  
                ( 64.31%)   0.8019* N   2 s( 32.97%)p 2.03( 67.00%)d 0.00(  0.03%)
                                           -0.0001  0.5742 -0.0009 -0.0020 -0.0005
                                           -0.5177 -0.0193  0.0054  0.6324 -0.0167
                                            0.0019  0.0354 -0.0013 -0.0008 -0.0112
                                           -0.0008  0.0002  0.0051 -0.0133
                ( 35.69%)   0.5974* C   3 s( 26.04%)p 2.84( 73.84%)d 0.00(  0.12%)
                                           -0.0001  0.5101 -0.0159  0.0018 -0.0020
                                            0.6538 -0.0586 -0.0002 -0.5533  0.0082
                                            0.0068 -0.0359  0.0009  0.0005 -0.0283
                                           -0.0018  0.0020 -0.0022 -0.0193
     6. (1.98440) BD ( 1) N   2 - C  13  
                ( 66.22%)   0.8138* N   2 s( 33.87%)p 1.95( 66.12%)d 0.00(  0.01%)
                                           -0.0001  0.5819  0.0065  0.0054  0.0029
                                            0.8010  0.0230 -0.0077  0.1303 -0.0040
                                            0.0023 -0.0441  0.0006 -0.0005  0.0010
                                           -0.0022  0.0002  0.0060 -0.0094
                ( 33.78%)   0.5812* C  13 s( 19.38%)p 4.15( 80.48%)d 0.01(  0.14%)
                                            0.0000  0.4394 -0.0272 -0.0017 -0.0017
                                           -0.8788 -0.0410  0.0025 -0.1633 -0.0028
                                           -0.0029  0.0644 -0.0017 -0.0004  0.0111
                                           -0.0054 -0.0014  0.0304 -0.0189
     7. (1.97954) BD ( 1) C   3 - C   4  
                ( 50.00%)   0.7071* C   3 s( 36.74%)p 1.72( 63.22%)d 0.00(  0.05%)
                                            0.0000  0.6060 -0.0105 -0.0012  0.0016
                                           -0.7312  0.0274  0.0060 -0.3095 -0.0264
                                            0.0119  0.0111 -0.0013  0.0000  0.0184
                                            0.0000  0.0000  0.0033 -0.0117
                ( 50.00%)   0.7071* C   4 s( 36.78%)p 1.72( 63.17%)d 0.00(  0.05%)
                                            0.0000  0.6064 -0.0104 -0.0010  0.0017
                                            0.6627  0.0063 -0.0144  0.4368 -0.0377
                                            0.0016 -0.0080 -0.0017  0.0007  0.0101
                                           -0.0007 -0.0001  0.0157 -0.0119
     8. (1.83643) BD ( 2) C   3 - C   4  
                ( 49.88%)   0.7063* C   3 s(  0.00%)p 1.00( 99.91%)d 0.00(  0.09%)
                                            0.0000  0.0010 -0.0007  0.0015  0.0004
                                            0.0287  0.0008  0.0010 -0.0299  0.0001
                                            0.0000  0.9981  0.0270  0.0190  0.0000
                                           -0.0163 -0.0257 -0.0011 -0.0004
                ( 50.12%)   0.7079* C   4 s(  0.00%)p 1.00( 99.91%)d 0.00(  0.09%)
                                            0.0000 -0.0011  0.0002  0.0004  0.0004
                                            0.0327  0.0010  0.0017 -0.0298 -0.0009
                                            0.0002  0.9980  0.0279  0.0197 -0.0008
                                            0.0304 -0.0005  0.0009 -0.0016
     9. (1.98420) BD ( 1) C   3 - H   7  
                ( 64.44%)   0.8028* C   3 s( 37.20%)p 1.69( 62.76%)d 0.00(  0.03%)
                                           -0.0003  0.6098  0.0133 -0.0002 -0.0005
                                            0.1794  0.0156 -0.0028  0.7712  0.0143
                                           -0.0052  0.0173  0.0000  0.0002  0.0089
                                            0.0000  0.0005 -0.0117 -0.0101
                ( 35.56%)   0.5963* H   7 s(100.00%)
                                            1.0000  0.0018
    10. (1.98057) BD ( 1) C   4 - N   5  
                ( 35.64%)   0.5970* C   4 s( 25.94%)p 2.85( 73.94%)d 0.00(  0.12%)
                                           -0.0001  0.5091 -0.0161  0.0022 -0.0015
                                            0.0981  0.0255 -0.0059 -0.8517  0.0540
                                            0.0038 -0.0281  0.0011  0.0002 -0.0129
                                           -0.0006  0.0020 -0.0254 -0.0195
                ( 64.36%)   0.8023* N   5 s( 32.67%)p 2.06( 67.30%)d 0.00(  0.03%)
                                           -0.0001  0.5715 -0.0003 -0.0034 -0.0007
                                           -0.2386  0.0261 -0.0055  0.7840  0.0076
                                           -0.0071  0.0251 -0.0006 -0.0001  0.0000
                                           -0.0005  0.0011 -0.0116 -0.0133
    11. (1.98449) BD ( 1) C   4 - H   8  
                ( 64.46%)   0.8029* C   4 s( 37.26%)p 1.68( 62.71%)d 0.00(  0.03%)
                                            0.0003 -0.6103 -0.0132  0.0005  0.0009
                                            0.7408  0.0200 -0.0063 -0.2771  0.0049
                                           -0.0001 -0.0332 -0.0007  0.0003  0.0072
                                            0.0014 -0.0004 -0.0128  0.0103
                ( 35.54%)   0.5961* H   8 s(100.00%)
                                           -1.0000 -0.0017
    12. (1.98914) BD ( 1) N   5 - C   9  
                ( 66.18%)   0.8135* N   5 s( 33.75%)p 1.96( 66.24%)d 0.00(  0.01%)
                                           -0.0001  0.5809  0.0063  0.0050  0.0029
                                           -0.5571 -0.0089  0.0026 -0.5930 -0.0149
                                            0.0034  0.0093 -0.0001 -0.0003  0.0066
                                           -0.0008 -0.0003 -0.0013 -0.0100
                ( 33.82%)   0.5815* C   9 s( 20.62%)p 3.84( 79.24%)d 0.01(  0.15%)
                                            0.0001  0.4532 -0.0270 -0.0009 -0.0006
                                            0.6091  0.0308 -0.0007  0.6474  0.0319
                                           -0.0025 -0.0141 -0.0019 -0.0001  0.0330
                                           -0.0009 -0.0009 -0.0017 -0.0194
    13. (1.98658) BD ( 1) C   9 - H  10  
                ( 63.85%)   0.7990* C   9 s( 26.50%)p 2.77( 73.44%)d 0.00(  0.06%)
                                            0.0000  0.5148  0.0044 -0.0002  0.0003
                                           -0.5517 -0.0007 -0.0019  0.1463 -0.0170
                                           -0.0047 -0.6390  0.0070 -0.0005 -0.0060
                                            0.0186 -0.0092  0.0052  0.0087
                ( 36.15%)   0.6013* H  10 s(100.00%)
                                            1.0000  0.0007
    14. (1.98990) BD ( 1) C   9 - H  11  
                ( 63.45%)   0.7965* C   9 s( 26.34%)p 2.79( 73.60%)d 0.00(  0.06%)
                                            0.0000 -0.5132 -0.0025 -0.0008  0.0004
                                           -0.4095  0.0210  0.0056  0.7453  0.0002
                                            0.0018  0.1109 -0.0014 -0.0003  0.0193
                                            0.0034 -0.0046  0.0063  0.0124
                ( 36.55%)   0.6046* H  11 s(100.00%)
                                           -1.0000 -0.0001
    15. (1.98563) BD ( 1) C   9 - H  12  
                ( 63.86%)   0.7991* C   9 s( 26.61%)p 2.76( 73.34%)d 0.00(  0.06%)
                                            0.0000  0.5158  0.0050 -0.0002  0.0004
                                           -0.3924 -0.0036 -0.0023  0.0263 -0.0148
                                           -0.0042  0.7605 -0.0087  0.0011 -0.0013
                                           -0.0147  0.0052  0.0026  0.0175
                ( 36.14%)   0.6012* H  12 s(100.00%)
                                            1.0000  0.0007
    16. (1.97723) BD ( 1) C  13 - H  14  
                ( 64.01%)   0.8000* C  13 s( 25.63%)p 2.90( 74.31%)d 0.00(  0.06%)
                                            0.0002 -0.5062 -0.0101 -0.0003  0.0000
                                           -0.1752 -0.0042 -0.0026 -0.0823 -0.0156
                                           -0.0033  0.8398 -0.0129  0.0030 -0.0002
                                            0.0035  0.0030 -0.0008 -0.0232
                ( 35.99%)   0.5999* H  14 s(100.00%)
                                           -1.0000 -0.0023
    17. (1.97552) BD ( 1) C  13 - H  15  
                ( 64.17%)   0.8010* C  13 s( 25.19%)p 2.97( 74.75%)d 0.00(  0.06%)
                                           -0.0001  0.5018  0.0076  0.0007 -0.0005
                                            0.1396  0.0167  0.0029  0.7507 -0.0081
                                            0.0000  0.4047 -0.0179 -0.0013  0.0011
                                            0.0010  0.0184 -0.0155 -0.0035
                ( 35.83%)   0.5986* H  15 s(100.00%)
                                            1.0000  0.0022
    18. (1.98217) BD ( 1) C  13 - C  16  
                ( 52.35%)   0.7235* C  13 s( 29.88%)p 2.35( 70.08%)d 0.00(  0.04%)
                                            0.0001  0.5466 -0.0071 -0.0004  0.0016
                                            0.4164  0.0083  0.0004 -0.6336  0.0099
                                            0.0063  0.3544  0.0080  0.0005 -0.0086
                                            0.0053 -0.0131 -0.0096 -0.0042
                ( 47.65%)   0.6903* C  16 s( 30.58%)p 2.27( 69.38%)d 0.00(  0.04%)
                                            0.0000  0.5530  0.0026  0.0002  0.0006
                                           -0.4449  0.0067  0.0113  0.6089 -0.0198
                                           -0.0020 -0.3526 -0.0063  0.0085 -0.0147
                                            0.0085 -0.0112 -0.0024 -0.0032
    19. (1.97861) BD ( 1) C  16 - H  17  
                ( 63.17%)   0.7948* C  16 s( 30.17%)p 2.31( 69.78%)d 0.00(  0.05%)
                                           -0.0003  0.5490  0.0182 -0.0001 -0.0014
                                           -0.0889 -0.0108  0.0034 -0.0849  0.0033
                                           -0.0011  0.8261  0.0063 -0.0031 -0.0009
                                           -0.0050 -0.0040  0.0004  0.0209
                ( 36.83%)   0.6069* H  17 s(100.00%)
                                            1.0000  0.0029
    20. (1.99122) BD ( 1) C  16 - C  18  
                ( 51.45%)   0.7173* C  16 s( 38.94%)p 1.57( 61.02%)d 0.00(  0.03%)
                                            0.0000 -0.6237  0.0219  0.0000 -0.0012
                                           -0.4053  0.0306 -0.0014  0.5143 -0.0295
                                            0.0020  0.4238 -0.0027 -0.0062  0.0110
                                            0.0097 -0.0110  0.0020 -0.0020
                ( 48.55%)   0.6968* C  18 s( 38.35%)p 1.61( 61.60%)d 0.00(  0.04%)
                                           -0.0001 -0.6189  0.0217 -0.0024 -0.0009
                                            0.5426 -0.0196 -0.0059 -0.4108  0.0237
                                            0.0042 -0.3888  0.0261  0.0001  0.0140
                                            0.0112 -0.0086 -0.0023  0.0025
    21. (1.96167) BD ( 2) C  16 - C  18  
                ( 53.52%)   0.7315* C  16 s(  0.31%)p99.99( 99.63%)d 0.21(  0.06%)
                                           -0.0001  0.0526 -0.0171 -0.0012 -0.0030
                                            0.7916  0.0270  0.0076  0.5961  0.0279
                                            0.0096  0.1120  0.0093  0.0055 -0.0019
                                           -0.0120 -0.0133  0.0173 -0.0030
                ( 46.48%)   0.6818* C  18 s(  0.26%)p99.99( 99.65%)d 0.35(  0.09%)
                                            0.0001  0.0498 -0.0105  0.0027 -0.0019
                                            0.7044  0.0287  0.0105  0.6825  0.0191
                                            0.0109  0.1820  0.0014  0.0006 -0.0003
                                            0.0071  0.0129 -0.0262  0.0042
    22. (1.98447) BD ( 1) C  18 - H  19  
                ( 62.77%)   0.7923* C  18 s( 30.98%)p 2.23( 68.97%)d 0.00(  0.05%)
                                           -0.0003  0.5566  0.0072 -0.0007 -0.0007
                                            0.4446 -0.0063 -0.0003 -0.5972  0.0013
                                            0.0018  0.3675  0.0181 -0.0052 -0.0142
                                            0.0095 -0.0135 -0.0046 -0.0024
                ( 37.23%)   0.6101* H  19 s(100.00%)
                                            1.0000  0.0016
    23. (1.98556) BD ( 1) C  18 - H  20  
                ( 61.84%)   0.7864* C  18 s( 30.43%)p 2.28( 69.52%)d 0.00(  0.05%)
                                            0.0003 -0.5515 -0.0110  0.0019  0.0000
                                           -0.0970  0.0204 -0.0034 -0.0798 -0.0207
                                            0.0043  0.8237 -0.0009 -0.0048  0.0003
                                            0.0030  0.0055  0.0004 -0.0223
                ( 38.16%)   0.6178* H  20 s(100.00%)
                                           -1.0000 -0.0022
    24. (1.99931) CR ( 1) C   1           s(100.00%)p 0.00(  0.00%)
                                            1.0000  0.0003  0.0000  0.0000  0.0000
                                            0.0001  0.0000  0.0000 -0.0001  0.0000
                                            0.0000  0.0000  0.0000  0.0000  0.0000
                                            0.0000  0.0000  0.0000  0.0000
    25. (1.99934) CR ( 1) N   2           s(100.00%)
                                            1.0000  0.0002  0.0000  0.0000  0.0000
                                            0.0000  0.0000  0.0000  0.0000  0.0000
                                            0.0000 -0.0001  0.0000  0.0000  0.0000
                                            0.0000  0.0000  0.0000  0.0000
    26. (1.99919) CR ( 1) C   3           s(100.00%)p 0.00(  0.00%)
                                            1.0000  0.0002  0.0000  0.0000  0.0000
                                            0.0001  0.0000  0.0000  0.0001  0.0000
                                            0.0000  0.0000  0.0000  0.0000  0.0000
                                            0.0000  0.0000  0.0000  0.0000
    27. (1.99918) CR ( 1) C   4           s(100.00%)p 0.00(  0.00%)
                                            1.0000  0.0002  0.0000  0.0000  0.0000
                                           -0.0002  0.0000  0.0000  0.0000  0.0000
                                            0.0000  0.0000  0.0000  0.0000  0.0000
                                            0.0000  0.0000  0.0000  0.0000
    28. (1.99935) CR ( 1) N   5           s(100.00%)
                                            1.0000  0.0002  0.0000  0.0000  0.0000
                                            0.0000  0.0000  0.0000  0.0000  0.0000
                                            0.0000  0.0000  0.0000  0.0000  0.0000
                                            0.0000  0.0000  0.0000  0.0000
    29. (1.99956) CR ( 1) C   9           s(100.00%)
                                            1.0000  0.0000  0.0000  0.0000  0.0000
                                           -0.0001  0.0000  0.0000 -0.0001  0.0000
                                            0.0000  0.0000  0.0000  0.0000  0.0000
                                            0.0000  0.0000  0.0000  0.0000
    30. (1.99937) CR ( 1) C  13           s(100.00%)p 0.00(  0.00%)
                                            1.0000  0.0001  0.0000  0.0000  0.0000
                                            0.0000  0.0000  0.0000  0.0002  0.0000
                                            0.0000 -0.0001  0.0000  0.0000  0.0000
                                            0.0000  0.0000  0.0000  0.0000
    31. (1.99917) CR ( 1) C  16           s(100.00%)p 0.00(  0.00%)
                                            1.0000  0.0002  0.0000  0.0000  0.0000
                                            0.0000  0.0000  0.0000  0.0000  0.0000
                                            0.0000  0.0003  0.0000  0.0000  0.0000
                                            0.0000  0.0000  0.0000  0.0000
    32. (1.99915) CR ( 1) C  18           s(100.00%)p 0.00(  0.00%)
                                            1.0000  0.0002  0.0000  0.0000  0.0000
                                            0.0001  0.0000  0.0000 -0.0002  0.0000
                                            0.0000 -0.0002  0.0000  0.0000  0.0000
                                            0.0000  0.0000  0.0000  0.0000
    33. (1.48764) LP ( 1) N   5           s(  0.00%)p 1.00( 99.96%)d 0.00(  0.04%)
                                            0.0000  0.0008  0.0003  0.0004  0.0006
                                           -0.0371  0.0003  0.0005  0.0201 -0.0001
                                            0.0009 -0.9989  0.0040 -0.0117  0.0000
                                           -0.0166 -0.0093 -0.0008  0.0003
    34. (0.00521) RY*( 1) C   1           s(  3.05%)p26.41( 80.43%)d 5.43( 16.53%)
                                            0.0000  0.0159  0.1730 -0.0155 -0.0047
                                            0.0190  0.3217  0.0349 -0.0151 -0.8322
                                           -0.0661 -0.0046 -0.0447 -0.0106  0.3374
                                            0.0460  0.0033  0.2159  0.0515
    35. (0.00328) RY*( 2) C   1           s(  0.06%)p99.99( 40.78%)d99.99( 59.16%)
                                            0.0000 -0.0007  0.0104  0.0214  0.0085
                                            0.0068 -0.1300  0.0010  0.0061 -0.0467
                                            0.0094 -0.0239  0.6164 -0.0893 -0.0060
                                            0.5766  0.5088  0.0124 -0.0065
    36. (0.00293) RY*( 3) C   1           s(  0.11%)p99.99( 94.12%)d50.24(  5.76%)
                                            0.0000  0.0046  0.0304  0.0077  0.0120
                                           -0.0536  0.8905  0.0279 -0.0307  0.3753
                                            0.0353 -0.0073 -0.0287 -0.0239 -0.0482
                                            0.1627  0.1033  0.1345  0.0083
    37. (0.00215) RY*( 4) C   1           s(  0.42%)p99.99( 55.44%)d99.99( 44.14%)
                                            0.0000 -0.0005  0.0582  0.0208  0.0203
                                            0.0042 -0.1568 -0.0285  0.0084  0.0069
                                            0.0167 -0.0183 -0.7195  0.1030 -0.0276
                                            0.6546  0.1042 -0.0085 -0.0345
    38. (0.00113) RY*( 5) C   1           s( 92.42%)p 0.04(  3.28%)d 0.05(  4.30%)
                                            0.0000  0.0126  0.9484  0.1065  0.1153
                                           -0.0197 -0.0469 -0.0538  0.0350  0.0664
                                            0.1414  0.0012  0.0397 -0.0093 -0.1645
                                           -0.0700 -0.0037 -0.0980  0.0373
    39. (0.00028) RY*( 6) C   1           s(  1.19%)p36.31( 43.05%)d47.04( 55.77%)
                                            0.0000  0.0000  0.0101  0.0973  0.0479
                                           -0.0364  0.1027 -0.5644 -0.0181  0.0647
                                           -0.2979 -0.0005 -0.0129 -0.0812  0.4402
                                            0.0037  0.0518 -0.6009  0.0124
    40. (0.00017) RY*( 7) C   1           s( 73.90%)p 0.17( 12.56%)d 0.18( 13.53%)
                                            0.0000 -0.0012 -0.0865  0.8419 -0.1511
                                            0.0053  0.0780  0.1709 -0.0039 -0.1493
                                           -0.2504  0.0019  0.0198  0.0703 -0.3213
                                            0.0248 -0.0599 -0.1667  0.0101
    41. (0.00010) RY*( 8) C   1           s( 13.26%)p 2.83( 37.56%)d 3.71( 49.18%)
                                            0.0000 -0.0009  0.0390  0.3057 -0.1940
                                            0.0171 -0.1490 -0.4104  0.0112  0.1600
                                           -0.0773 -0.0075 -0.1264 -0.3700  0.1447
                                           -0.1633  0.2276  0.6264  0.0065
    42. (0.00005) RY*( 9) C   1           s(  0.73%)p82.57( 60.34%)d53.27( 38.93%)
    43. (0.00006) RY*(10) C   1           s( 11.81%)p 2.85( 33.70%)d 4.61( 54.49%)
    44. (0.00003) RY*(11) C   1           s(  7.13%)p12.40( 88.45%)d 0.62(  4.42%)
    45. (0.00002) RY*(12) C   1           s( 95.48%)p 0.01(  0.92%)d 0.04(  3.60%)
    46. (0.00000) RY*(13) C   1           s(  0.07%)p99.99( 46.96%)d99.99( 52.97%)
    47. (0.00001) RY*(14) C   1           s(  0.31%)p 9.64(  2.96%)d99.99( 96.73%)
    48. (0.00316) RY*( 1) N   2           s(  5.34%)p16.26( 86.78%)d 1.48(  7.88%)
                                            0.0000  0.0026  0.2292  0.0279 -0.0088
                                           -0.0114  0.2178 -0.0590 -0.0021 -0.0499
                                            0.0272  0.0000  0.9004  0.0520  0.0259
[...]
 5768,-0.00063049,0.00035043,0.00096260,0.00086048,-0.00047190,0.000439
 64,0.06394496,0.15788630,-0.00084885,-0.00323518,-0.00051353,0.0005211
 1,-0.00142374,-0.00468660,0.00663268,0.01567187,-0.00545759,0.07351035
 ,0.13989083,-0.25121958,-0.00419234,-0.00782995,0.01120053,0.00011037,
 0.00000721,0.00072215,-0.00034396,-0.00022507,0.00000368,-0.07578227,-
 0.14467140,0.24848466,-0.00276677,0.00734463,0.00187102,0.00518196,-0.
 00037645,0.00328682,0.00029599,-0.00380228,0.00134462,-0.00149348,-0.0
 0318535,-0.01198250,-0.07252663,-0.01871241,-0.00490053,-0.00248970,0.
 00128946,0.00021751,0.00110750,-0.00024326,-0.00042285,-0.00058317,0.0
 0071710,0.00014108,0.61326777,0.00612595,0.01182297,0.00269653,-0.0016
 4554,0.00304567,0.00796767,-0.00309267,-0.00624752,0.00261431,-0.00086
 442,-0.01092895,-0.02974467,-0.01851436,-0.12986882,-0.05115907,0.0012
 6052,0.00048335,0.00164198,-0.00017558,0.00044801,-0.00099956,0.000650
 16,0.00123041,0.00071815,0.00446676,0.60345985,-0.00293641,-0.01276516
 ,-0.02578434,0.00162888,0.00227591,-0.00014372,0.00118236,0.00374216,0
 .00285799,-0.00353441,-0.00870713,0.00216347,-0.00496220,-0.04974721,-
 0.20394790,-0.00035575,0.00025318,0.00196501,-0.00006834,-0.00035806,0
 .00084569,0.00032915,0.00119696,0.00117841,-0.01576864,-0.06605086,0.5
 1414102,-0.00010218,-0.00001913,0.00169789,-0.00066960,-0.00046458,0.0
 0007376,0.00012628,0.00011167,-0.00034956,0.00045204,0.00043108,-0.000
 27932,0.00168399,-0.00223735,-0.00045490,0.00020563,-0.00007951,-0.000
 06048,0.00004306,-0.00001524,0.00000349,-0.00026495,-0.00025328,-0.000
 24625,-0.15242433,0.09389231,-0.10042159,0.15573730,-0.00158055,-0.001
 01951,0.00111870,-0.00023685,-0.00117022,-0.00198007,0.00021844,0.0007
 3344,-0.00048469,0.00002814,0.00144113,-0.00019045,-0.01275699,0.01051
 379,-0.01881460,0.00017461,-0.00004308,-0.00019461,0.00016293,-0.00008
 787,0.00002060,-0.00008099,-0.00011980,0.00019641,0.09591544,-0.140099
 31,0.09739014,-0.10065627,0.14366468,-0.00335217,-0.00226604,0.0005779
 9,0.00044902,-0.00131877,-0.00174465,0.00057473,0.00047064,-0.00114331
 ,0.00049056,0.00184335,0.00142512,-0.01577257,0.01341622,-0.02991494,-
 0.00027933,0.00004769,-0.00007347,0.00010701,-0.00005780,0.00003113,-0
 .00048677,-0.00023049,0.00003446,-0.09557167,0.08837470,-0.14216769,0.
 10781512,-0.09422607,0.16362651,0.00065368,0.00028868,0.00049951,-0.00
 028176,-0.00000225,-0.00017640,0.00051643,-0.00014103,0.00008278,0.000
 70860,0.00037065,-0.00002686,-0.00274034,-0.00065363,-0.00023017,0.000
 36258,-0.00010861,-0.00014911,-0.00003433,0.00004493,-0.00001557,-0.00
 022101,0.00013537,-0.00001980,-0.09817044,-0.10721834,0.01945957,0.009
 91751,0.01872356,-0.00180166,0.09856239,0.00006324,0.00103709,0.001399
 16,0.00006805,-0.00026444,-0.00011747,-0.00036951,-0.00045437,-0.00010
 533,0.00038326,0.00149806,-0.00188588,-0.00551798,-0.01578354,0.000511
 27,-0.00008113,0.00026400,-0.00052424,0.00007142,0.00009499,-0.0001597
 6,0.00014706,0.00008694,0.00000625,-0.10534576,-0.28083585,0.04070123,
 -0.00741480,-0.01269260,0.00218927,0.11553156,0.30073084,-0.00068077,-
 0.00143406,0.00200573,-0.00021824,-0.00025679,0.00013730,-0.00051606,-
 0.00173328,-0.00061589,0.00069552,0.00087803,-0.00499425,-0.01614297,-
 0.03784111,0.00008036,0.00014240,0.00023454,-0.00046556,0.00009609,0.0
 0009741,-0.00044108,-0.00008677,-0.00017973,-0.00010557,0.02490592,0.0
 5390792,-0.06074933,0.01019753,0.01607899,-0.00150445,-0.02140704,-0.0
 4212422,0.06790865,0.00029237,-0.00038967,-0.00019441,-0.00031097,-0.0
 0015128,-0.00108832,0.00017776,0.00024310,0.00009460,0.00054197,-0.000
 04671,-0.00004020,0.01088994,-0.00120017,-0.00460613,-0.00002170,0.000
 03783,-0.00006871,-0.00007130,0.00001347,-0.00000370,-0.00014766,0.000
 22035,0.00022927,-0.29168292,0.02563399,0.10535553,-0.01471978,-0.0003
 0663,0.00753742,-0.00921879,0.00241529,0.00295777,0.30446028,0.0002425
 4,-0.00136831,0.00241669,-0.00027183,-0.00143150,-0.00142479,0.0001273
 8,0.00069380,-0.00070600,0.00082612,0.00118987,-0.00016253,0.01410794,
 -0.00322848,-0.01335747,-0.00023428,0.00009340,-0.00017768,-0.00017310
 ,0.00004460,-0.00000691,0.00008848,-0.00040992,0.00000472,0.02233997,-
 0.05391204,-0.00771605,0.01668674,-0.00083095,-0.00786437,-0.02699808,
 0.00628662,0.01233861,-0.02648543,0.05287479,0.00112844,-0.00361408,0.
 00123159,-0.00126526,-0.00097969,-0.00185534,0.00008650,0.00073564,-0.
 00140951,0.00083570,0.00183473,0.00142040,0.02722671,-0.00554653,-0.02
 528464,0.00034584,-0.00016444,-0.00004020,-0.00013409,0.00004136,0.000
 00849,0.00016165,-0.00033630,0.00012858,0.09650215,-0.00958758,-0.0900
 5342,-0.01799844,0.00098170,0.01076159,0.00376707,0.00008006,-0.001348
 95,-0.11019045,0.01664965,0.10648049,-0.00074799,0.00626981,-0.0093882
 5,-0.07267672,-0.01102752,0.02183690,-0.00322254,0.00169527,0.00785917
 ,0.00242226,-0.00086332,0.00124525,0.00178866,-0.00534485,-0.00029506,
 -0.00200144,0.00040915,-0.00029401,-0.00110507,0.00057929,0.00014291,0
 .00124362,-0.00035019,0.00016728,0.00253587,-0.00050109,0.00005164,0.0
 0002693,0.00039434,0.00029616,-0.00005833,0.00003718,0.00004871,-0.000
 22381,-0.00027163,-0.00054534,0.63342922,0.00756455,0.01274813,-0.0165
 5269,-0.01213130,-0.09687009,-0.00570600,-0.00030199,0.00260857,0.0262
 6405,-0.00444053,-0.00529525,0.00137224,-0.00093057,-0.00311276,-0.006
 57443,0.00044808,-0.00036779,-0.00029151,0.00121046,0.00027887,0.00026
 555,-0.00029466,0.00089952,0.00077696,-0.00019320,0.00148142,-0.000163
 31,0.00000727,-0.00033536,-0.00039920,0.00002001,0.00002819,0.00000639
 ,0.00000626,-0.00006335,-0.00017340,0.01133141,0.57088659,0.00074700,-
 0.00565333,-0.02689260,0.02061860,0.00534030,-0.18377379,0.00483490,0.
 00935293,-0.01159052,-0.00056664,0.00034485,0.00472253,-0.00142983,-0.
 00274556,0.00588375,-0.00020927,0.00052325,0.00170302,-0.00050921,-0.0
 0126758,0.00195981,0.00026988,0.00030088,0.00054313,0.00014346,-0.0012
 0617,-0.00080212,-0.00001211,0.00028375,0.00031894,0.00001589,0.000036
 78,0.00005581,0.00010675,0.00012532,0.00017703,0.01688811,0.04226137,0
 .43329421,0.00012854,-0.00072394,-0.00063999,0.00118124,-0.00113595,0.
 00360620,0.00012835,0.00046822,0.00026835,0.00017734,0.00001786,0.0001
 4228,-0.00019884,-0.00002773,-0.00005107,-0.00013493,0.00007582,0.0000
 1954,-0.00029310,0.00010220,0.00007925,-0.00000834,0.00002031,0.000020
 21,-0.00006191,0.00000196,0.00005203,0.00000026,0.00001383,-0.00001319
 ,-0.00000346,0.00000280,0.00000221,0.00001261,0.00001303,0.00000435,-0
 .29399525,0.08079130,0.04555389,0.31047894,0.00012515,-0.00039164,-0.0
 0143529,-0.00483766,0.00214744,0.00192311,-0.00022921,0.00027736,0.000
 67749,0.00052044,-0.00008613,-0.00010689,-0.00034798,-0.00009407,0.000
 86029,0.00013982,-0.00012005,-0.00006955,-0.00025226,0.00004534,-0.000
 05130,0.00003672,-0.00001197,0.00002814,-0.00004969,-0.00011137,-0.000
 09537,0.00000810,0.00004504,0.00002993,0.00001080,-0.00000285,0.000005
 71,0.00000895,0.00002912,0.00003838,0.07988857,-0.07831527,-0.01665757
 ,-0.08705443,0.08258893,0.00255007,0.00186898,0.00296010,0.03416458,-0
 .00935861,-0.02298664,0.00004554,-0.00268725,0.00120003,-0.00083889,-0
 .00116552,-0.00199693,0.00021240,0.00225453,-0.00270218,0.00044529,-0.
 00018954,-0.00015027,0.00023800,0.00008216,-0.00001848,-0.00025254,0.0
 0003284,-0.00007628,-0.00048152,0.00049715,0.00010590,0.00001228,-0.00
 017215,-0.00017636,0.00001361,-0.00002081,-0.00001746,0.00000332,-0.00
 000650,0.00003258,0.03832267,-0.01566578,-0.05411550,-0.05193091,0.014
 11153,0.07020032,0.00004866,-0.00056083,0.00157322,0.00534883,0.005859
 47,0.00727813,0.00057296,0.00018368,0.00037796,0.00010017,0.00011679,-
 0.00033053,0.00029074,0.00060980,0.00071741,-0.00002980,0.00006098,0.0
 0001148,0.00019154,0.00004417,-0.00033065,-0.00005746,0.00000236,0.000
 00223,-0.00016772,-0.00004128,0.00001268,0.00000170,0.00000267,0.00001
 258,0.00000017,0.00000578,0.00000396,0.00001107,0.00002338,0.00005840,
 -0.17412542,-0.10995751,-0.08541210,-0.01729990,-0.01844178,-0.0133325
 5,0.17888728,-0.00016083,-0.00013850,0.00016506,0.00310708,0.00245718,
 0.00255488,0.00033564,0.00131341,0.00099464,0.00053910,0.00012034,0.00
 010557,-0.00030191,-0.00016946,0.00094187,0.00002892,-0.00010881,0.000
 22513,-0.00030897,0.00009768,0.00008038,-0.00002453,0.00001390,-0.0000
 0962,-0.00021332,-0.00004403,-0.00007175,0.00000457,0.00000397,-0.0000
 0306,-0.00000560,0.00000454,-0.00000144,0.00000933,0.00004315,0.000052
 21,-0.11071775,-0.15133652,-0.08027048,0.00722097,0.00769761,0.0057078
 3,0.11988923,0.16210248,0.00020805,0.00475810,-0.00212101,-0.02170341,
 -0.02449960,-0.03113935,-0.00070857,-0.00186231,0.00170443,-0.00024169
 ,-0.00074108,-0.00039994,0.00040695,-0.00058622,-0.00229655,-0.0000690
 7,0.00004407,-0.00014941,0.00004780,0.00081661,-0.00028088,0.00009777,
 0.00001827,0.00003892,0.00053976,0.00031642,0.00002809,0.00000379,-0.0
 0002649,-0.00005035,-0.00000534,0.00001720,0.00002939,-0.00006178,-0.0
 0009091,-0.00017654,-0.07497260,-0.06965644,-0.09830645,0.00340038,0.0
 0449644,0.00455034,0.08513469,0.07894106,0.12239633,0.00115404,-0.0001
 1331,0.00013624,-0.00034674,-0.01236489,0.00696840,0.00110601,0.000370
 80,0.00190852,-0.00031885,-0.00058782,0.00098396,-0.00009753,-0.000265
 70,0.00006622,0.00010280,-0.00005992,-0.00036288,0.00004987,0.00020736
 ,-0.00013245,-0.00013013,0.00015005,0.00015730,-0.00005194,-0.00005711
 ,-0.00018650,-0.00002056,0.00000089,0.00002004,0.00002404,-0.00000044,
 -0.00001739,0.00002002,-0.00002364,0.00006311,-0.09860855,0.02906853,-
 0.00615772,-0.00317944,0.03104717,-0.00922892,0.00522952,-0.02233771,0
 .00897576,0.78314382,0.00016634,0.00144983,0.00036328,-0.00254650,-0.0
 0493164,0.01373733,0.00018733,-0.00085048,-0.00054377,0.00007276,-0.00
 023035,-0.00074865,0.00017866,0.00035960,-0.00179608,-0.00008638,0.000
 37147,-0.00053418,-0.00008031,0.00000904,-0.00009864,-0.00005781,-0.00
 012238,-0.00004545,0.00012003,0.00024283,0.00020974,0.00000127,-0.0000
 4038,-0.00004644,-0.00001424,-0.00001361,-0.00002113,-0.00003373,-0.00
 003600,-0.00007314,0.02883990,-0.22351814,0.03588371,0.00178472,-0.010
 84011,0.00234688,0.00223577,-0.01963814,0.00666174,0.07255710,0.603367
 75,-0.00082938,0.00083780,-0.00157124,0.00024498,0.04142397,-0.0217252
 3,-0.00227942,-0.00181936,-0.00373380,0.00109092,0.00127370,-0.0015409
 6,0.00032069,0.00177451,0.00021019,0.00045923,0.00069955,-0.00025711,0
 .00008793,0.00016404,-0.00024483,0.00029374,-0.00026197,-0.00025469,0.
 00016582,0.00003106,0.00040759,0.00001872,0.00002737,0.00000190,0.0000
 1367,-0.00000180,0.00004833,-0.00003444,-0.00003664,-0.00005677,-0.004
 68090,0.02850763,-0.07867716,-0.00077272,-0.00457424,0.00287455,0.0050
 2206,-0.01104892,0.00700103,-0.18640761,-0.17844853,0.26548080,-0.0000
 7054,0.00034391,-0.00017787,0.00033014,0.00023535,-0.00072393,-0.00015
 680,-0.00009944,0.00000630,-0.00009351,-0.00013519,-0.00009861,0.00012
 057,0.00006083,-0.00014156,-0.00024794,0.00006330,-0.00008719,0.000001
 42,-0.00001495,0.00002665,-0.00000602,-0.00000210,-0.00002172,0.000012
 90,-0.00001591,-0.00004935,-0.00000436,-0.00000705,0.00000510,-0.00001
 541,0.00000059,-0.00001145,0.00000110,0.00000605,-0.00000369,0.0003464
 3,-0.00094025,0.00158611,0.00111238,-0.00024812,0.00036448,0.00028094,
 0.00055734,-0.00033683,-0.29948755,0.09928157,0.02619614,0.31594336,-0
 .00002935,0.00005385,0.00000999,-0.00028586,0.00078599,-0.00095326,-0.
 00020970,0.00011728,0.00014818,-0.00001012,0.00008707,0.00005796,-0.00
 000076,-0.00005712,0.00042106,0.00003873,-0.00004263,0.00011481,0.0001
 0131,0.00000716,-0.00002860,0.00003343,0.00000465,0.00002403,0.0000070
 3,-0.00005354,-0.00002751,0.00000016,0.00000947,0.00001454,-0.00000339
 ,0.00000216,0.00000279,0.00000582,0.00001099,0.00001305,0.02826780,-0.
 01067716,-0.00256676,-0.00000191,-0.00488106,0.00233224,-0.00028343,0.
 00098496,-0.00042316,0.10010611,-0.09567789,-0.00456067,-0.10631984,0.
 09867958,-0.00002600,-0.00001695,-0.00026296,-0.00042372,-0.00073801,0
 .00182708,0.00035970,0.00010791,-0.00011536,-0.00007601,-0.00004663,0.
 00014191,0.00001893,-0.00012955,-0.00007318,-0.00035991,-0.00005097,-0
 .00006511,-0.00002025,-0.00001148,0.00005225,-0.00003715,0.00001810,-0
 .00001540,0.00001360,-0.00004141,-0.00006404,-0.00000233,-0.00000397,0
 .00000564,-0.00001970,-0.00000133,-0.00001672,0.00000385,0.00001140,-0
 .00001027,-0.00786552,0.00444372,0.00206465,0.00025525,0.00168973,0.00
 065231,0.00033065,0.00021887,0.00009746,0.02331835,-0.00355632,-0.0441
 5550,-0.03048897,0.00035570,0.03279923,-0.00024153,-0.00035726,-0.0004
 4207,0.00049339,0.00314075,-0.00345708,0.00002419,-0.00004592,-0.00061
 957,0.00021059,0.00022909,-0.00030430,0.00015548,0.00039076,-0.0002045
 7,-0.00008159,0.00005485,0.00043727,-0.00004682,-0.00001928,0.00001613
 ,0.00001472,0.00000731,-0.00005426,0.00002008,0.00009401,0.00021330,0.
 00001344,-0.00000763,-0.00003341,-0.00000076,-0.00000150,0.00002743,-0
 .00001192,-0.00000588,-0.00004236,0.00671803,-0.00158065,0.00180057,0.
 00158981,0.00109696,-0.00077489,0.00035424,0.00264725,-0.00057434,-0.3
 7804908,-0.18909387,0.15012274,-0.01817095,-0.01906133,0.01267988,0.75
 564345,-0.00030088,-0.00081438,-0.00149181,-0.00068466,-0.00413816,-0.
 00034427,0.00052950,0.00105058,0.00073177,-0.00005966,0.00006176,0.000
 48678,-0.00013871,0.00011929,0.00110587,0.00011230,-0.00013527,0.00076
 989,0.00007527,0.00013686,-0.00007671,0.00004844,0.00013128,0.00010577
 ,-0.00007681,-0.00013149,-0.00007002,-0.00000516,0.00002657,0.00003051
 ,0.00001047,0.00001654,0.00004188,0.00002074,0.00001900,0.00004877,-0.
 02533512,-0.02221203,0.01393649,-0.00182697,0.00192936,0.00002754,0.00
 036158,-0.00347531,0.00184440,-0.18517787,-0.24896578,0.11792419,0.009
 57400,0.01102810,-0.00415695,0.05100760,0.68174256,-0.00013472,-0.0001
 2972,-0.00021738,0.00034326,0.00041765,0.00024847,0.00003961,0.0000154
 8,-0.00031908,0.00004294,0.00011577,-0.00011975,-0.00001741,0.00016887
 ,0.00011057,0.00004902,0.00022249,-0.00026606,-0.00002353,-0.00002179,
 -0.00001069,0.00000363,-0.00000229,-0.00000562,-0.00000571,0.00000047,
 0.00004855,-0.00000058,-0.00000118,0.00000157,-0.00000558,0.00000416,0
 .00001142,0.00000006,0.00000603,-0.00000303,0.00794362,0.00913535,-0.0
 0005485,0.00017333,-0.00123174,-0.00053214,-0.00047286,0.00008763,-0.0
 0033360,0.15020641,0.12000526,-0.13080895,0.00209293,0.00275551,0.0043
 7857,-0.18016096,-0.21556294,0.24678964,-0.00009266,-0.00016004,-0.000
 22844,-0.00001599,-0.00149356,0.00044088,0.00012515,0.00019205,0.00026
 305,-0.00008351,-0.00005195,0.00012419,-0.00002579,-0.00004963,0.00016
 807,0.00002547,0.00005086,-0.00001459,0.00002019,0.00001001,-0.0000023
 6,-0.00000762,0.00002809,0.00002711,-0.00000988,-0.00002341,-0.0000373
 1,-0.00000263,0.00000494,0.00000845,0.00000483,0.00000352,0.00000249,0
 .00000424,0.00000208,0.00001054,-0.00216109,-0.00003198,0.00390919,0.0
 0013613,-0.00026634,0.00010054,0.00019706,-0.00014489,-0.00019937,0.00
 719413,-0.02425574,0.00832476,0.00060191,-0.00055604,-0.00177213,-0.06
 714173,0.05259480,-0.01292884,0.06105551,-0.00008865,-0.00022571,-0.00
 024008,-0.00041892,-0.00149945,0.00055276,0.00012344,0.00022659,0.0002
 2322,-0.00003357,-0.00005121,0.00009957,-0.00002432,-0.00002860,0.0001
 3261,0.00003384,-0.00002895,0.00003832,0.00000654,-0.00000021,0.000003
 15,0.00000147,0.00002515,0.00002474,-0.00001010,-0.00001940,-0.0000192
 9,-0.00000009,0.00000487,0.00000379,0.00000252,0.00000213,0.00000540,0
 .00000275,0.00000299,0.00000672,-0.00051270,0.00233802,0.00430800,-0.0
 0003838,0.00035657,0.00000863,-0.00006564,0.00039106,-0.00026027,0.004
 75018,-0.01016644,0.00450189,-0.00057683,-0.00004912,-0.00265149,0.047
 63595,-0.31770438,0.08975703,-0.05037954,0.33077010,-0.00013182,-0.000
 27575,-0.00022309,-0.00053699,-0.00251700,0.00164006,0.00015166,0.0001
 6090,0.00036690,-0.00008352,-0.00014632,0.00010183,0.00000817,-0.00007
 823,-0.00004660,0.00002153,0.00023150,-0.00017095,-0.00001678,-0.00005
 006,0.00003687,-0.00001667,0.00002668,0.00003312,0.00000083,0.00002881
 ,0.00000490,-0.00000103,-0.00000558,-0.00000617,-0.00000450,0.00000387
 ,-0.00000689,0.00000108,0.00000189,-0.00000432,0.00539537,0.00606345,0
 .00991524,0.00011080,-0.00013363,-0.00000165,-0.00025018,0.00219508,-0
 .00130247,-0.00354067,0.01107844,0.00174711,-0.00168952,-0.00256218,-0
 .00619633,-0.01086192,0.08947283,-0.07159315,0.01013239,-0.09982271,0.
 06053651,-0.00004156,0.00009111,0.00017402,0.00049277,0.00036748,-0.00
 051348,-0.00004830,-0.00011338,-0.00006917,-0.00002240,0.00003555,-0.0
 0008099,0.00003919,0.00003981,-0.00012518,-0.00009726,0.00002104,0.000
 07304,0.00000188,0.00000146,0.00000049,-0.00000491,-0.00000814,-0.0000
 0953,0.00000680,0.00002407,0.00003536,0.00000026,-0.00000685,-0.000005
 40,-0.00000558,0.00000138,0.00000066,-0.00000250,0.00000014,-0.0000108
 4,0.00041519,0.00035475,-0.00217748,0.00022957,-0.00115521,0.00036746,
 0.00016541,-0.00012394,0.00005806,-0.01773389,0.01074313,0.00264307,-0
 .00049807,-0.00179866,0.00411150,-0.30149303,0.09927113,0.03285537,0.0
 0017629,-0.00040797,0.00131177,0.31842012,0.00014601,0.00019839,0.0001
 9923,0.00038595,0.00046065,-0.00039181,-0.00008477,-0.00013326,-0.0000
 6531,0.00001332,-0.00002239,-0.00007646,0.00000830,0.00002427,-0.00018
 922,0.00004764,0.00001298,-0.00002803,-0.00001471,-0.00000175,0.000007
 14,-0.00000269,-0.00001296,-0.00001467,0.00000821,0.00003781,0.0000224
 2,0.00000225,-0.00000389,-0.00000839,0.00000664,-0.00000484,-0.0000058
 9,-0.00000427,-0.00000779,-0.00000709,-0.00278854,0.00083441,-0.002330
 18,0.00029630,-0.00026223,-0.00000416,-0.00004519,-0.00031950,0.000232
 17,-0.01726981,0.00923082,0.00358642,-0.00176326,-0.00033273,0.0045596
 5,0.10386880,-0.09868509,-0.00574204,0.02452675,-0.00434399,-0.0036719
 8,-0.10733691,0.09333108,0.00019079,0.00029032,0.00015574,0.00053102,0
 .00137177,-0.00077939,-0.00010002,-0.00018728,-0.00014456,0.00002975,-
 0.00000415,-0.00007292,-0.00000975,0.00001322,-0.00006949,0.00012012,-
 0.00012042,0.00000450,0.00000981,0.00002254,0.00000923,0.00001028,-0.0
 0001596,-0.00003277,0.00000084,-0.00000584,-0.00003406,0.00000402,0.00
 000221,-0.00000347,0.00000963,-0.00000840,-0.00001084,-0.00000152,-0.0
 0000445,0.00000224,-0.00215610,-0.00391394,-0.00642513,-0.00028020,0.0
 0049485,0.00019775,-0.00040659,-0.00086495,0.00071056,0.01322983,-0.00
 437405,0.00525475,0.00355300,0.00487230,0.00895575,0.03223240,-0.00482
 398,-0.04732447,-0.00832862,0.00332802,0.00516909,-0.03863871,0.003928
 20,0.03443750||0.00000446,-0.00000033,0.00000289,-0.00000106,-0.000000
 32,0.00000739,0.00000102,0.00000003,0.00000391,0.00000124,0.00000564,0
 .00000446,0.00000282,0.00000421,-0.00000434,-0.00000309,0.00000143,-0.
 00000459,0.00000120,-0.00000077,0.00000871,0.00000556,0.00000789,0.000
 00801,0.00000478,0.00001181,0.00000519,0.00000507,0.00001107,-0.000001
 38,0.00000331,0.00000868,-0.00000470,0.00000455,0.00000960,-0.00000121
 ,-0.00000066,-0.00000963,-0.00000691,-0.00000305,-0.00000399,0.0000018
 2,-0.00000243,-0.00000762,0.00000654,-0.00000818,-0.00000568,-0.000001
 52,-0.00000240,-0.00000775,-0.00000393,-0.00000230,-0.00000633,-0.0000
 0588,-0.00000566,-0.00000912,-0.00000842,-0.00000517,-0.00000882,-0.00
 000604|||@


 FROM WHENCE IT HAPPENS, THAT THEY WHICH TRUST TO BOOKS, DO AS THEY THAT CAST UP MANY LITTLE SUMMS INTO GREATER,
 WITHOUT CONSIDERING WETHER THOSE LITTLE SUMMES WERE RIGHTLY CAST UP OR NOT...
 AND AT LAST FINDING THE ERROUR VISIBLE, AND NOT MISTRUSTING THEIR FIRST GROUNDS,
 KNOW NOT WHICH WAY TO CLEERE THEMSELVES...
 BUT SPEND TIME IN FLUTTERING OVER THEIR BOOKES....
 AS BIRDS THAT ENTERING BY THE CHIMNEY, AND FINDING THEMSELVES INCLOSED IN A CHAMBER,
 FLUTTER AT THE FALSE LIGHT OF A GLASSE WINDOW,
 FOR WANT OF WIT TO CONSIDER WHICH WAY THEY CAME IN....
           LEVIATHAN
 Job cpu time:       0 days  7 hours 54 minutes 20.0 seconds.
 File lengths (MBytes):  RWF=     83 Int=      0 D2E=      0 Chk=      4 Scr=      1
 Normal termination of Gaussian 09 at Tue Aug 05 03:03:29 2025.
